# vtk DataFile Version 2.0
VTK from Matlab
ASCII
DATASET STRUCTURED_GRID
DIMENSIONS 72 64 4
POINTS 18432 float
-177.50 -85.88 2.48 -172.50 -85.88 2.48 -167.50 -85.88 2.48 -162.50 -85.88 2.48 -157.50 -85.88 2.48 -152.50 -85.88 2.48 -147.50 -85.88 2.48 -142.50 -85.88 2.48 -137.50 -85.88 2.48 -132.50 -85.88 2.48 -127.50 -85.88 2.48 -122.50 -85.88 2.48 -117.50 -85.88 2.48 -112.50 -85.88 2.48 -107.50 -85.88 2.48 -102.50 -85.88 2.48 -97.50 -85.88 2.48 -92.50 -85.88 2.48 -87.50 -85.88 2.48 -82.50 -85.88 2.48 -77.50 -85.88 2.48 -72.50 -85.88 2.48 -67.50 -85.88 2.48 -62.50 -85.88 2.48 -57.50 -85.88 2.48 -52.50 -85.88 2.48 -47.50 -85.88 2.48 -42.50 -85.88 2.48 -37.50 -85.88 2.48 -32.50 -85.88 2.48 -27.50 -85.88 2.48 -22.50 -85.88 2.48 -17.50 -85.88 2.48 -12.50 -85.88 2.48 -7.50 -85.88 2.48 -2.50 -85.88 2.48 2.50 -85.88 2.48 7.50 -85.88 2.48 12.50 -85.88 2.48 17.50 -85.88 2.48 22.50 -85.88 2.48 27.50 -85.88 2.48 32.50 -85.88 2.48 37.50 -85.88 2.48 42.50 -85.88 2.48 47.50 -85.88 2.48 52.50 -85.88 2.48 57.50 -85.88 2.48 62.50 -85.88 2.48 67.50 -85.88 2.48 72.50 -85.88 2.48 77.50 -85.88 2.48 82.50 -85.88 2.48 87.50 -85.88 2.48 92.50 -85.88 2.48 97.50 -85.88 2.48 102.50 -85.88 2.48 107.50 -85.88 2.48 112.50 -85.88 2.48 117.50 -85.88 2.48 122.50 -85.88 2.48 127.50 -85.88 2.48 132.50 -85.88 2.48 137.50 -85.88 2.48 142.50 -85.88 2.48 147.50 -85.88 2.48 152.50 -85.88 2.48 157.50 -85.88 2.48 162.50 -85.88 2.48 167.50 -85.88 2.48 172.50 -85.88 2.48 177.50 -85.88 2.48 -177.50 -80.50 2.48 -172.50 -80.50 2.48 -167.50 -80.50 2.48 -162.50 -80.50 2.48 -157.50 -80.50 2.48 -152.50 -80.50 2.48 -147.50 -80.50 2.48 -142.50 -80.50 2.48 -137.50 -80.50 2.48 -132.50 -80.50 2.48 -127.50 -80.50 2.48 -122.50 -80.50 2.48 -117.50 -80.50 2.48 -112.50 -80.50 2.48 -107.50 -80.50 2.48 -102.50 -80.50 2.48 -97.50 -80.50 2.48 -92.50 -80.50 2.48 -87.50 -80.50 2.48 -82.50 -80.50 2.48 -77.50 -80.50 2.48 -72.50 -80.50 2.48 -67.50 -80.50 2.48 -62.50 -80.50 2.48 -57.50 -80.50 2.48 -52.50 -80.50 2.48 -47.50 -80.50 2.48 -42.50 -80.50 2.48 -37.50 -80.50 2.48 -32.50 -80.50 2.48 -27.50 -80.50 2.48 -22.50 -80.50 2.48 -17.50 -80.50 2.48 -12.50 -80.50 2.48 -7.50 -80.50 2.48 -2.50 -80.50 2.48 2.50 -80.50 2.48 7.50 -80.50 2.48 12.50 -80.50 2.48 17.50 -80.50 2.48 22.50 -80.50 2.48 27.50 -80.50 2.48 32.50 -80.50 2.48 37.50 -80.50 2.48 42.50 -80.50 2.48 47.50 -80.50 2.48 52.50 -80.50 2.48 57.50 -80.50 2.48 62.50 -80.50 2.48 67.50 -80.50 2.48 72.50 -80.50 2.48 77.50 -80.50 2.48 82.50 -80.50 2.48 87.50 -80.50 2.48 92.50 -80.50 2.48 97.50 -80.50 2.48 102.50 -80.50 2.48 107.50 -80.50 2.48 112.50 -80.50 2.48 117.50 -80.50 2.48 122.50 -80.50 2.48 127.50 -80.50 2.48 132.50 -80.50 2.48 137.50 -80.50 2.48 142.50 -80.50 2.48 147.50 -80.50 2.48 152.50 -80.50 2.48 157.50 -80.50 2.48 162.50 -80.50 2.48 167.50 -80.50 2.48 172.50 -80.50 2.48 177.50 -80.50 2.48 -177.50 -78.12 2.48 -172.50 -78.12 2.48 -167.50 -78.12 2.48 -162.50 -78.12 2.48 -157.50 -78.12 2.48 -152.50 -78.12 2.48 -147.50 -78.12 2.48 -142.50 -78.12 2.48 -137.50 -78.12 2.48 -132.50 -78.12 2.48 -127.50 -78.12 2.48 -122.50 -78.12 2.48 -117.50 -78.12 2.48 -112.50 -78.12 2.48 -107.50 -78.12 2.48 -102.50 -78.12 2.48 -97.50 -78.12 2.48 -92.50 -78.12 2.48 -87.50 -78.12 2.48 -82.50 -78.12 2.48 -77.50 -78.12 2.48 -72.50 -78.12 2.48 -67.50 -78.12 2.48 -62.50 -78.12 2.48 -57.50 -78.12 2.48 -52.50 -78.12 2.48 -47.50 -78.12 2.48 -42.50 -78.12 2.48 -37.50 -78.12 2.48 -32.50 -78.12 2.48 -27.50 -78.12 2.48 -22.50 -78.12 2.48 -17.50 -78.12 2.48 -12.50 -78.12 2.48 -7.50 -78.12 2.48 -2.50 -78.12 2.48 2.50 -78.12 2.48 7.50 -78.12 2.48 12.50 -78.12 2.48 17.50 -78.12 2.48 22.50 -78.12 2.48 27.50 -78.12 2.48 32.50 -78.12 2.48 37.50 -78.12 2.48 42.50 -78.12 2.48 47.50 -78.12 2.48 52.50 -78.12 2.48 57.50 -78.12 2.48 62.50 -78.12 2.48 67.50 -78.12 2.48 72.50 -78.12 2.48 77.50 -78.12 2.48 82.50 -78.12 2.48 87.50 -78.12 2.48 92.50 -78.12 2.48 97.50 -78.12 2.48 102.50 -78.12 2.48 107.50 -78.12 2.48 112.50 -78.12 2.48 117.50 -78.12 2.48 122.50 -78.12 2.48 127.50 -78.12 2.48 132.50 -78.12 2.48 137.50 -78.12 2.48 142.50 -78.12 2.48 147.50 -78.12 2.48 152.50 -78.12 2.48 157.50 -78.12 2.48 162.50 -78.12 2.48 167.50 -78.12 2.48 172.50 -78.12 2.48 177.50 -78.12 2.48 -177.50 -76.00 2.48 -172.50 -76.00 2.48 -167.50 -76.00 2.48 -162.50 -76.00 2.48 -157.50 -76.00 2.48 -152.50 -76.00 2.48 -147.50 -76.00 2.48 -142.50 -76.00 2.48 -137.50 -76.00 2.48 -132.50 -76.00 2.48 -127.50 -76.00 2.48 -122.50 -76.00 2.48 -117.50 -76.00 2.48 -112.50 -76.00 2.48 -107.50 -76.00 2.48 -102.50 -76.00 2.48 -97.50 -76.00 2.48 -92.50 -76.00 2.48 -87.50 -76.00 2.48 -82.50 -76.00 2.48 -77.50 -76.00 2.48 -72.50 -76.00 2.48 -67.50 -76.00 2.48 -62.50 -76.00 2.48 -57.50 -76.00 2.48 -52.50 -76.00 2.48 -47.50 -76.00 2.48 -42.50 -76.00 2.48 -37.50 -76.00 2.48 -32.50 -76.00 2.48 -27.50 -76.00 2.48 -22.50 -76.00 2.48 -17.50 -76.00 2.48 -12.50 -76.00 2.48 -7.50 -76.00 2.48 -2.50 -76.00 2.48 2.50 -76.00 2.48 7.50 -76.00 2.48 12.50 -76.00 2.48 17.50 -76.00 2.48 22.50 -76.00 2.48 27.50 -76.00 2.48 32.50 -76.00 2.48 37.50 -76.00 2.48 42.50 -76.00 2.48 47.50 -76.00 2.48 52.50 -76.00 2.48 57.50 -76.00 2.48 62.50 -76.00 2.48 67.50 -76.00 2.48 72.50 -76.00 2.48 77.50 -76.00 2.48 82.50 -76.00 2.48 87.50 -76.00 2.48 92.50 -76.00 2.48 97.50 -76.00 2.48 102.50 -76.00 2.48 107.50 -76.00 2.48 112.50 -76.00 2.48 117.50 -76.00 2.48 122.50 -76.00 2.48 127.50 -76.00 2.48 132.50 -76.00 2.48 137.50 -76.00 2.48 142.50 -76.00 2.48 147.50 -76.00 2.48 152.50 -76.00 2.48 157.50 -76.00 2.48 162.50 -76.00 2.48 167.50 -76.00 2.48 172.50 -76.00 2.48 177.50 -76.00 2.48 -177.50 -74.00 2.48 -172.50 -74.00 2.48 -167.50 -74.00 2.48 -162.50 -74.00 2.48 -157.50 -74.00 2.48 -152.50 -74.00 2.48 -147.50 -74.00 2.48 -142.50 -74.00 2.48 -137.50 -74.00 2.48 -132.50 -74.00 2.48 -127.50 -74.00 2.48 -122.50 -74.00 2.48 -117.50 -74.00 2.48 -112.50 -74.00 2.48 -107.50 -74.00 2.48 -102.50 -74.00 2.48 -97.50 -74.00 2.48 -92.50 -74.00 2.48 -87.50 -74.00 2.48 -82.50 -74.00 2.48 -77.50 -74.00 2.48 -72.50 -74.00 2.48 -67.50 -74.00 2.48 -62.50 -74.00 2.48 -57.50 -74.00 2.48 -52.50 -74.00 2.48 -47.50 -74.00 2.48 -42.50 -74.00 2.48 -37.50 -74.00 2.48 -32.50 -74.00 2.48 -27.50 -74.00 2.48 -22.50 -74.00 2.48 -17.50 -74.00 2.48 -12.50 -74.00 2.48 -7.50 -74.00 2.48 -2.50 -74.00 2.48 2.50 -74.00 2.48 7.50 -74.00 2.48 12.50 -74.00 2.48 17.50 -74.00 2.48 22.50 -74.00 2.48 27.50 -74.00 2.48 32.50 -74.00 2.48 37.50 -74.00 2.48 42.50 -74.00 2.48 47.50 -74.00 2.48 52.50 -74.00 2.48 57.50 -74.00 2.48 62.50 -74.00 2.48 67.50 -74.00 2.48 72.50 -74.00 2.48 77.50 -74.00 2.48 82.50 -74.00 2.48 87.50 -74.00 2.48 92.50 -74.00 2.48 97.50 -74.00 2.48 102.50 -74.00 2.48 107.50 -74.00 2.48 112.50 -74.00 2.48 117.50 -74.00 2.48 122.50 -74.00 2.48 127.50 -74.00 2.48 132.50 -74.00 2.48 137.50 -74.00 2.48 142.50 -74.00 2.48 147.50 -74.00 2.48 152.50 -74.00 2.48 157.50 -74.00 2.48 162.50 -74.00 2.48 167.50 -74.00 2.48 172.50 -74.00 2.48 177.50 -74.00 2.48 -177.50 -71.88 2.48 -172.50 -71.88 2.48 -167.50 -71.88 2.48 -162.50 -71.88 2.48 -157.50 -71.88 2.48 -152.50 -71.88 2.48 -147.50 -71.88 2.48 -142.50 -71.88 2.48 -137.50 -71.88 2.48 -132.50 -71.88 2.48 -127.50 -71.88 2.48 -122.50 -71.88 2.48 -117.50 -71.88 2.48 -112.50 -71.88 2.48 -107.50 -71.88 2.48 -102.50 -71.88 2.48 -97.50 -71.88 2.48 -92.50 -71.88 2.48 -87.50 -71.88 2.48 -82.50 -71.88 2.48 -77.50 -71.88 2.48 -72.50 -71.88 2.48 -67.50 -71.88 2.48 -62.50 -71.88 2.48 -57.50 -71.88 2.48 -52.50 -71.88 2.48 -47.50 -71.88 2.48 -42.50 -71.88 2.48 -37.50 -71.88 2.48 -32.50 -71.88 2.48 -27.50 -71.88 2.48 -22.50 -71.88 2.48 -17.50 -71.88 2.48 -12.50 -71.88 2.48 -7.50 -71.88 2.48 -2.50 -71.88 2.48 2.50 -71.88 2.48 7.50 -71.88 2.48 12.50 -71.88 2.48 17.50 -71.88 2.48 22.50 -71.88 2.48 27.50 -71.88 2.48 32.50 -71.88 2.48 37.50 -71.88 2.48 42.50 -71.88 2.48 47.50 -71.88 2.48 52.50 -71.88 2.48 57.50 -71.88 2.48 62.50 -71.88 2.48 67.50 -71.88 2.48 72.50 -71.88 2.48 77.50 -71.88 2.48 82.50 -71.88 2.48 87.50 -71.88 2.48 92.50 -71.88 2.48 97.50 -71.88 2.48 102.50 -71.88 2.48 107.50 -71.88 2.48 112.50 -71.88 2.48 117.50 -71.88 2.48 122.50 -71.88 2.48 127.50 -71.88 2.48 132.50 -71.88 2.48 137.50 -71.88 2.48 142.50 -71.88 2.48 147.50 -71.88 2.48 152.50 -71.88 2.48 157.50 -71.88 2.48 162.50 -71.88 2.48 167.50 -71.88 2.48 172.50 -71.88 2.48 177.50 -71.88 2.48 -177.50 -69.50 2.48 -172.50 -69.50 2.48 -167.50 -69.50 2.48 -162.50 -69.50 2.48 -157.50 -69.50 2.48 -152.50 -69.50 2.48 -147.50 -69.50 2.48 -142.50 -69.50 2.48 -137.50 -69.50 2.48 -132.50 -69.50 2.48 -127.50 -69.50 2.48 -122.50 -69.50 2.48 -117.50 -69.50 2.48 -112.50 -69.50 2.48 -107.50 -69.50 2.48 -102.50 -69.50 2.48 -97.50 -69.50 2.48 -92.50 -69.50 2.48 -87.50 -69.50 2.48 -82.50 -69.50 2.48 -77.50 -69.50 2.48 -72.50 -69.50 2.48 -67.50 -69.50 2.48 -62.50 -69.50 2.48 -57.50 -69.50 2.48 -52.50 -69.50 2.48 -47.50 -69.50 2.48 -42.50 -69.50 2.48 -37.50 -69.50 2.48 -32.50 -69.50 2.48 -27.50 -69.50 2.48 -22.50 -69.50 2.48 -17.50 -69.50 2.48 -12.50 -69.50 2.48 -7.50 -69.50 2.48 -2.50 -69.50 2.48 2.50 -69.50 2.48 7.50 -69.50 2.48 12.50 -69.50 2.48 17.50 -69.50 2.48 22.50 -69.50 2.48 27.50 -69.50 2.48 32.50 -69.50 2.48 37.50 -69.50 2.48 42.50 -69.50 2.48 47.50 -69.50 2.48 52.50 -69.50 2.48 57.50 -69.50 2.48 62.50 -69.50 2.48 67.50 -69.50 2.48 72.50 -69.50 2.48 77.50 -69.50 2.48 82.50 -69.50 2.48 87.50 -69.50 2.48 92.50 -69.50 2.48 97.50 -69.50 2.48 102.50 -69.50 2.48 107.50 -69.50 2.48 112.50 -69.50 2.48 117.50 -69.50 2.48 122.50 -69.50 2.48 127.50 -69.50 2.48 132.50 -69.50 2.48 137.50 -69.50 2.48 142.50 -69.50 2.48 147.50 -69.50 2.48 152.50 -69.50 2.48 157.50 -69.50 2.48 162.50 -69.50 2.48 167.50 -69.50 2.48 172.50 -69.50 2.48 177.50 -69.50 2.48 -177.50 -67.00 2.48 -172.50 -67.00 2.48 -167.50 -67.00 2.48 -162.50 -67.00 2.48 -157.50 -67.00 2.48 -152.50 -67.00 2.48 -147.50 -67.00 2.48 -142.50 -67.00 2.48 -137.50 -67.00 2.48 -132.50 -67.00 2.48 -127.50 -67.00 2.48 -122.50 -67.00 2.48 -117.50 -67.00 2.48 -112.50 -67.00 2.48 -107.50 -67.00 2.48 -102.50 -67.00 2.48 -97.50 -67.00 2.48 -92.50 -67.00 2.48 -87.50 -67.
[...]
POINT_DATA 18432
SCALARS RH float
LOOKUP_TABLE default
NaN NaN 0.47 0.27 0.37 0.11 0.22 0.19 0.12 0.39 0.44 NaN NaN NaN NaN NaN NaN NaN NaN 0.53 0.61 0.74 0.43 0.49 0.46 0.64 0.23 0.31 NaN NaN NaN NaN NaN NaN NaN NaN NaN NaN NaN NaN NaN NaN NaN NaN NaN NaN NaN NaN NaN NaN NaN NaN NaN NaN NaN NaN NaN NaN NaN NaN NaN NaN NaN NaN NaN NaN NaN NaN NaN NaN NaN NaN 0.12 0.13 0.16 0.03 0.05 0.04 0.17 0.02 -0.07 0.11 0.20 0.19 0.45 0.22 NaN NaN NaN NaN -0.12 0.07 0.14 0.25 0.11 0.12 -0.03 0.13 0.22 0.11 -0.04 -0.14 -0.04 -0.05 0.21 -0.13 NaN NaN NaN NaN NaN NaN NaN NaN NaN NaN NaN NaN NaN NaN NaN NaN NaN NaN NaN NaN NaN NaN NaN NaN NaN NaN NaN NaN NaN NaN NaN NaN 0.78 0.40 0.05 0.04 -0.04 -0.04 0.08 -0.03 -0.09 -0.21 -0.07 -0.10 -0.02 -0.15 -0.13 -0.19 0.18 0.03 -0.08 -0.18 -0.04 0.24 -0.23 0.02 0.17 0.13 0.22 0.26 0.32 0.20 0.13 0.14 0.01 -0.01 0.03 0.11 0.26 -0.06 0.24 NaN NaN NaN NaN NaN NaN NaN NaN NaN NaN NaN NaN NaN NaN NaN NaN NaN NaN NaN NaN NaN NaN NaN NaN NaN NaN NaN NaN NaN NaN NaN NaN NaN NaN NaN 0.34 -0.12 0.05 0.10 -0.29 -0.41 -0.01 -0.21 -0.17 -0.07 -0.21 0.33 0.40 0.30 0.55 0.55 0.24 0.08 0.18 0.20 0.02 -0.04 0.14 0.15 0.22 0.16 0.32 0.20 0.06 0.13 0.22 0.29 -0.08 -0.06 0.29 0.06 -0.10 NaN NaN NaN NaN NaN NaN NaN NaN NaN NaN NaN NaN NaN NaN NaN NaN NaN NaN NaN NaN NaN NaN NaN NaN NaN NaN NaN NaN NaN NaN NaN NaN NaN NaN NaN -0.13 -0.03 -0.11 0.05 -0.13 -0.30 -0.06 0.06 -0.06 0.08 0.06 0.11 0.04 0.12 -0.01 -0.22 -0.05 0.34 0.50 0.23 0.10 0.06 0.13 0.40 0.24 0.03 0.30 0.48 -0.46 -0.22 -0.06 -0.06 -0.10 0.05 -0.08 0.23 0.03 -0.14 NaN NaN NaN NaN NaN NaN NaN NaN NaN NaN NaN NaN NaN NaN 0.19 0.20 NaN NaN NaN NaN NaN NaN NaN NaN NaN NaN NaN NaN NaN NaN NaN NaN NaN NaN 0.16 -0.00 -0.05 -0.11 -0.12 0.01 0.10 0.02 0.22 -0.14 0.12 0.17 0.12 0.09 -0.14 0.11 0.07 0.13 0.23 0.25 0.24 0.07 0.08 0.06 0.30 0.19 0.11 0.43 -0.07 -0.33 -0.13 -0.15 0.02 0.03 0.29 0.11 0.03 0.25 -0.33 -0.29 0.26 NaN NaN 0.06 -0.53 -0.12 -0.36 NaN NaN NaN NaN NaN NaN 0.08 0.01 NaN NaN NaN NaN NaN NaN NaN NaN NaN NaN NaN NaN NaN NaN NaN NaN NaN 0.66 0.37 -0.08 -0.32 -0.28 -0.17 -0.35 -0.11 0.03 -0.26 0.04 0.21 0.27 0.09 -0.02 -0.04 -0.06 0.15 0.20 0.16 0.06 0.06 -0.03 0.03 -0.04 0.09 0.17 0.02 -0.17 -0.27 -0.11 -0.20 0.17 0.13 -0.08 -0.15 -0.00 0.19 0.26 0.22 0.11 0.03 0.32 0.22 0.06 0.18 0.08 0.03 -0.19 NaN NaN NaN NaN -0.00 0.04 0.20 NaN NaN NaN NaN NaN NaN NaN NaN NaN NaN NaN NaN 0.34 0.35 0.20 0.41 0.06 -0.08 -0.28 -0.15 -0.12 -0.10 -0.03 -0.11 -0.15 -0.23 0.01 0.11 0.19 -0.02 -0.02 0.04 0.01 -0.01 0.05 -0.16 -0.16 0.09 -0.04 0.00 0.03 0.09 0.00 0.13 -0.18 -0.04 -0.15 -0.27 0.01 -0.06 0.20 0.10 0.00 0.22 0.08 0.08 -0.23 -0.16 0.21 0.33 0.11 -0.04 -0.14 -0.09 -0.12 0.10 0.14 0.00 -0.20 -0.15 -0.14 0.01 -0.04 -0.06 -0.12 0.19 0.50 0.13 0.13 0.05 0.11 0.06 0.00 0.07 0.51 0.15 -0.16 -0.33 -0.24 -0.05 -0.13 -0.21 -0.11 -0.13 -0.19 -0.16 -0.05 -0.16 0.01 0.07 -0.17 -0.21 0.01 0.00 -0.14 -0.05 -0.13 -0.17 -0.01 -0.03 -0.10 -0.08 0.09 0.03 0.14 0.07 -0.41 -0.42 -0.28 -0.03 -0.14 0.12 0.33 0.17 0.07 -0.07 0.09 0.02 -0.11 -0.00 -0.05 -0.06 0.02 0.08 -0.11 -0.15 -0.04 -0.00 -0.11 -0.24 -0.11 -0.35 -0.32 -0.08 -0.04 -0.03 0.07 0.47 0.14 0.06 0.18 0.18 0.24 0.22 0.09 0.39 0.25 0.11 0.02 -0.08 -0.11 0.01 -0.00 -0.12 -0.27 -0.18 -0.18 -0.19 0.03 -0.11 -0.14 -0.01 -0.04 0.10 -0.17 -0.14 -0.01 -0.11 -0.07 -0.16 -0.14 -0.08 -0.12 0.02 0.01 -0.01 -0.08 -0.08 -0.02 0.03 -0.07 0.05 -0.04 0.09 0.00 -0.00 0.01 -0.07 -0.10 0.01 0.10 0.02 0.08 -0.17 -0.10 -0.09 -0.13 -0.13 -0.11 -0.28 -0.24 -0.13 -0.18 -0.29 -0.26 -0.11 -0.15 -0.12 -0.06 0.11 0.06 0.05 0.18 0.05 0.08 -0.02 0.10 0.15 0.12 -0.00 -0.15 -0.01 -0.01 -0.11 -0.02 -0.20 -0.27 -0.16 -0.29 -0.17 -0.09 -0.10 -0.15 -0.17 -0.01 -0.07 -0.16 -0.08 -0.03 0.06 -0.12 -0.14 -0.11 -0.06 -0.04 0.03 -0.06 -0.02 0.01 -0.10 -0.04 -0.03 -0.04 0.02 -0.00 0.15 0.08 -0.18 -0.13 -0.01 0.04 0.12 -0.01 -0.12 -0.05 -0.18 -0.13 -0.06 -0.12 -0.17 -0.20 -0.30 -0.21 -0.13 -0.11 -0.13 -0.28 -0.16 -0.09 -0.02 -0.01 0.03 0.06 0.29 0.23 0.13 0.15 0.10 0.26 0.23 0.05 -0.00 0.00 -0.07 -0.09 -0.05 -0.02 -0.09 -0.12 -0.12 -0.23 -0.12 0.05 -0.11 -0.11 0.07 0.03 -0.03 -0.08 0.02 -0.12 -0.13 -0.07 -0.06 -0.06 0.03 -0.03 -0.16 -0.04 -0.01 0.01 -0.08 -0.10 -0.06 0.05 -0.17 0.01 0.00 -0.18 -0.27 0.03 0.24 0.11 0.05 -0.06 -0.09 -0.18 -0.20 -0.03 -0.01 -0.25 -0.15 -0.09 -0.12 -0.17 -0.13 -0.26 -0.26 -0.11 0.00 -0.32 -0.13 0.12 -0.05 -0.12 0.13 0.14 0.15 0.05 0.21 0.17 0.17 0.12 0.08 0.03 -0.08 -0.09 0.01 -0.02 -0.03 -0.13 -0.14 -0.19 -0.08 -0.06 -0.04 -0.02 0.01 0.01 -0.00 0.03 -0.11 -0.07 -0.00 0.02 0.09 -0.05 -0.02 0.02 -0.12 -0.00 -0.12 -0.14 -0.06 -0.18 -0.19 -0.18 -0.11 -0.19 0.20 -0.10 -0.30 -0.01 -0.01 -0.08 0.04 -0.07 -0.10 -0.08 -0.17 -0.12 -0.29 -0.26 -0.25 -0.26 -0.16 -0.29 -0.23 -0.19 -0.15 -0.14 -0.06 -0.12 0.08 0.05 -0.06 -0.09 0.07 0.05 0.12 0.17 -0.04 0.19 0.08 0.09 0.02 -0.09 -0.06 -0.05 -0.01 0.06 -0.05 -0.15 -0.07 -0.10 0.05 -0.02 -0.01 -0.00 -0.00 0.04 -0.06 0.03 -0.03 -0.05 -0.06 0.04 -0.12 -0.00 -0.04 0.01 0.02 0.04 0.13 -0.09 -0.02 -0.08 -0.22 0.04 -0.08 -0.04 -0.02 -0.06 -0.08 0.19 -0.05 -0.11 -0.16 -0.15 0.01 -0.10 -0.02 -0.07 -0.09 -0.28 -0.32 -0.24 -0.26 -0.26 -0.19 -0.07 -0.26 -0.11 -0.24 -0.05 0.07 -0.09 -0.34 -0.21 -0.02 -0.05 0.06 -0.03 -0.03 0.06 0.08 -0.01 0.08 -0.07 -0.10 -0.03 -0.06 0.02 -0.09 -0.14 -0.09 -0.06 0.03 -0.02 -0.00 -0.06 -0.06 -0.09 -0.07 -0.02 0.07 0.01 -0.03 -0.02 -0.03 -0.01 -0.01 -0.11 -0.04 0.02 0.22 -0.12 -0.10 -0.17 -0.10 0.01 -0.10 0.06 0.00 0.04 0.09 0.14 -0.17 -0.20 -0.07 -0.08 -0.11 -0.07 0.04 -0.03 0.08 -0.02 -0.18 -0.15 -0.15 -0.03 -0.03 -0.14 -0.24 -0.12 -0.18 -0.11 0.01 -0.09 -0.25 -0.13 -0.11 0.06 0.10 0.03 0.08 0.07 0.04 0.03 0.01 0.01 -0.14 -0.07 -0.12 -0.06 -0.14 -0.05 -0.07 0.02 0.06 0.01 0.00 -0.08 -0.17 -0.08 -0.04 0.00 -0.00 -0.01 0.02 -0.20 -0.15 -0.14 -0.03 0.01 -0.00 -0.01 -0.66 -0.51 -0.02 -0.12 -0.13 -0.08 -0.03 -0.04 -0.00 0.06 -0.04 -0.11 -0.05 -0.04 0.02 0.00 -0.22 -0.03 -0.03 0.09 0.13 0.03 -0.01 0.03 -0.02 0.07 0.04 -0.04 -0.06 -0.03 -0.15 -0.01 -0.10 0.04 -0.04 -0.02 0.01 0.01 0.10 0.03 0.05 0.14 0.05 -0.07 -0.05 -0.02 -0.02 -0.13 -0.01 -0.05 -0.00 -0.15 -0.03 -0.02 0.03 0.00 -0.07 -0.03 -0.00 -0.01 0.01 -0.08 0.03 -0.00 0.08 -0.02 -0.04 -0.04 -0.05 0.01 -0.06 -0.02 -0.32 0.16 -0.04 -0.09 -0.10 -0.01 0.10 0.08 0.04 0.12 -0.01 -0.08 -0.11 -0.01 -0.01 -0.05 -0.14 -0.06 -0.01 0.12 0.19 0.02 0.03 0.09 0.11 -0.03 -0.04 0.10 0.01 0.01 -0.02 -0.14 -0.08 -0.04 -0.06 -0.00 0.01 -0.07 -0.07 0.01 -0.01 0.04 0.09 0.13 -0.12 -0.01 -0.08 -0.09 -0.16 -0.09 -0.17 -0.00 -0.03 -0.01 0.01 0.02 -0.10 -0.03 -0.01 -0.06 -0.02 0.07 0.03 0.04 -0.02 -0.03 0.04 -0.12 -0.03 -0.10 -0.12 -0.12 -0.24 -0.04 0.05 -0.11 -0.04 0.07 0.11 0.06 0.03 -0.00 0.08 -0.07 -0.08 -0.13 -0.06 0.08 -0.01 -0.04 -0.05 0.06 0.07 0.11 0.17 0.15 0.06 0.08 0.15 0.06 -0.01 -0.01 -0.05 0.01 0.00 -0.01 -0.13 -0.09 -0.07 -0.06 -0.06 -0.08 0.10 0.06 0.11 -0.06 0.00 -0.02 -0.09 -0.02 -0.03 -0.07 -0.05 0.02 -0.04 -0.00 0.01 0.00 0.00 -0.03 0.04 -0.03 -0.05 0.09 0.03 0.06 0.08 0.01 0.05 -0.05 0.03 0.06 -0.07 -0.11 -0.32 -0.34 0.06 -0.19 -0.00 0.02 0.08 0.06 0.01 0.05 -0.06 -0.06 0.01 0.02 0.03 0.06 0.07 0.08 -0.08 0.10 0.00 -0.03 0.16 0.07 0.02 0.06 0.02 0.02 -0.03 -0.03 -0.00 -0.01 -0.07 -0.10 -0.04 -0.06 -0.13 -0.13 -0.14 0.02 0.10 0.08 0.00 0.30 0.28 0.05 -0.08 -0.05 -0.07 -0.15 -0.07 0.02 -0.04 -0.03 -0.02 0.02 -0.08 -0.01 0.01 0.08 -0.01 -0.04 -0.01 0.06 0.03 0.00 -0.05 -0.05 0.01 0.05 -0.12 -0.12 -0.46 -0.46 0.01 0.09 -0.03 0.02 -0.08 -0.03 0.03 -0.01 0.03 0.03 -0.03 -0.06 0.00 0.02 0.03 0.05 -0.11 -0.08 -0.10 0.01 0.05 0.06 0.04 0.06 0.06 0.08 0.07 -0.04 -0.06 -0.10 -0.04 0.04 -0.11 -0.13 -0.11 -0.11 0.01 -0.11 0.01 0.01 0.31 0.09 0.22 0.12 -0.03 -0.03 -0.03 -0.16 -0.08 0.02 -0.08 0.03 -0.12 -0.06 -0.01 0.00 0.03 0.04 0.01 -0.03 0.03 0.04 0.01 -0.03 -0.02 -0.06 -0.04 0.03 0.02 -0.06 -0.33 0.32 0.17 0.10 0.01 -0.05 -0.06 -0.05 -0.03 -0.00 0.05 0.00 0.03 -0.02 0.02 0.02 0.00 0.02 -0.27 -0.39 -0.21 -0.17 -0.03 0.06 0.02 0.03 0.06 0.11 0.02 -0.02 -0.02 -0.12 -0.03 0.00 -0.07 -0.07 -0.13 -0.04 -0.07 0.07 -0.10 0.04 0.16 0.11 0.27 -0.07 -0.02 -0.05 -0.01 -0.00 -0.01 -0.06 -0.03 -0.03 -0.01 -0.09 -0.04 -0.05 -0.02 0.00 -0.09 0.03 0.04 0.10 0.01 0.02 -0.03 0.03 0.01 -0.01 -0.04 -0.07 -0.03 0.59 0.36 0.23 0.12 0.01 -0.09 -0.02 0.02 0.04 0.03 0.00 0.02 0.02 0.01 -0.01 -0.04 -0.07 -0.36 -0.14 -0.09 -0.17 -0.02 -0.07 -0.03 0.10 0.05 0.01 -0.04 0.00 -0.04 0.02 -0.05 -0.06 -0.03 -0.03 -0.11 0.04 0.20 0.03 -0.10 0.07 0.13 0.22 0.28 0.22 -0.03 -0.10 -0.03 -0.01 -0.02 -0.05 -0.03 0.01 0.02 -0.02 0.05 0.04 0.04 -0.03 0.04 0.04 0.08 0.04 0.04 0.09 0.02 0.05 0.04 0.02 -0.01 -0.03 0.01 NaN 0.25 0.10 0.15 0.14 -0.12 0.04 -0.04 0.04 0.03 0.04 0.00 -0.02 -0.09 0.02 0.01 -0.15 0.11 0.15 0.25 -0.16 -0.14 -0.23 -0.40 -0.05 -0.01 -0.03 0.03 0.01 -0.04 -0.11 -0.11 -0.04 -0.05 -0.07 -0.11 0.02 0.16 -0.00 0.11 0.10 0.04 0.18 0.17 0.17 -0.01 -0.03 0.01 0.02 0.07 -0.02 0.08 -0.02 0.04 0.03 -0.01 0.02 0.08 0.00 -0.13 -0.03 0.03 0.10 0.07 0.06 0.01 0.01 -0.01 -0.00 0.00 -0.02 0.03 NaN 0.17 0.03 -0.03 0.22 -0.05 -0.07 0.09 0.10 -0.03 0.01 -0.01 -0.04 -0.01 -0.02 -0.07 0.02 0.17 0.34 0.21 0.05 -0.13 -0.36 -0.46 -0.10 -0.06 -0.09 -0.01 -0.06 -0.04 -0.15 -0.11 -0.11 -0.07 -0.01 -0.10 0.20 0.33 0.19 0.12 -0.02 0.06 0.20 0.07 -0.10 0.01 0.03 0.00 0.06 0.09 0.05 0.04 0.07 0.02 0.03 0.04 0.07 0.02 -0.10 -0.02 -0.01 -0.02 0.03 0.02 0.01 0.01 0.02 -0.00 0.00 -0.00 0.01 0.07 NaN 0.53 0.00 -0.16 0.05 0.03 0.07 0.07 0.05 0.00 -0.02 -0.07 -0.00 -0.03 -0.07 -0.11 0.18 0.03 0.36 0.21 0.17 -0.07 -0.41 -0.32 -0.07 -0.04 -0.09 -0.00 -0.16 -0.04 -0.04 -0.04 -0.14 -0.02 -0.03 -0.12 -0.01 0.33 0.10 -0.01 0.11 -0.02 -0.13 0.11 0.01 -0.11 -0.03 -0.02 -0.03 0.07 -0.02 0.03 0.12 0.11 0.11 0.10 0.05 0.01 -0.10 -0.06 -0.01 0.06 -0.01 0.00 0.05 -0.00 0.01 0.02 0.00 -0.01 0.01 0.15 NaN 0.44 0.03 0.08 -0.09 -0.22 0.02 0.01 0.10 0.10 0.10 0.08 0.02 0.01 -0.04 -0.17 -0.11 0.10 0.43 0.19 0.00 -0.00 -0.02 -0.15 -0.05 -0.17 -0.19 -0.10 -0.07 -0.09 -0.06 -0.02 -0.01 -0.07 -0.12 -0.15 -0.11 0.03 0.28 0.03 0.03 -0.19 0.06 0.02 0.00 -0.06 -0.05 -0.00 -0.01 0.04 -0.00 0.06 0.12 0.10 0.18 0.09 -0.04 -0.00 -0.04 0.09 0.07 0.01 0.04 0.03 0.03 0.02 0.03 0.01 0.02 -0.01 0.02 NaN 0.11 0.21 0.05 0.22 0.06 -0.35 -0.04 0.06 0.13 0.06 0.03 0.03 -0.03 -0.01 0.02 -0.09 -0.13 0.19 0.32 0.39 0.02 -0.00 -0.04 0.04 -0.04 -0.11 -0.12 -0.04 0.01 -0.11 -0.13 -0.04 0.03 -0.06 -0.03 -0.03 -0.08 -0.09 -0.14 -0.14 0.01 -0.25 0.04 -0.08 -0.03 -0.08 -0.03 0.01 -0.04 -0.01 -0.01 0.03 0.05 -0.00 0.01 0.02 0.02 0.02 0.05 0.06 0.00 0.04 0.05 0.03 0.04 0.04 0.03 0.00 -0.01 -0.03 0.46 0.58 0.02 0.07 -0.01 0.00 0.07 -0.14 -0.19 0.03 0.10 0.05 0.01 0.08 -0.00 -0.05 -0.06 -0.05 0.07 -0.01 0.32 0.27 -0.16 -0.07 0.05 -0.00 -0.03 0.03 -0.01 -0.04 -0.07 -0.03 -0.06 -0.12 0.04 0.02 -0.01 -0.06 -0.13 -0.11 -0.17 -0.08 0.05 0.00 0.05 -0.01 -0.01 0.02 0.05 -0.01 0.06 -0.00 -0.00 0.04 0.06 0.08 0.01 0.03 0.05 0.02 0.03 0.02 0.02 0.04 0.03 0.09 0.06 0.03 -0.02 -0.03 -0.03 -0.08 0.00 0.04 -0.03 0.10 -0.19 0.11 -0.14 0.04 -0.18 0.01 0.03 0.09 0.05 0.06 -0.02 -0.01 -0.06 -0.07 0.09 -0.30 -0.00 0.16 0.49 0.14 0.01 -0.02 0.09 0.01 0.06 -0.01 -0.03 -0.06 0.05 0.02 -0.03 -0.01 0.01 -0.00 -0.08 0.02 -0.01 -0.05 -0.07 -0.05 0.03 0.13 0.04 0.01 0.02 -0.02 -0.03 -0.01 0.08 0.16 0.08 0.10 0.03 0.02 0.01 0.04 -0.01 0.07 0.03 0.04 0.02 -0.01 -0.03 -0.03 -0.07 0.01 0.02 0.27 0.15 0.06 0.08 -0.06 -0.09 -0.11 -0.21 -0.08 -0.07 0.01 -0.02 0.07 0.02 0.02 0.05 0.01 0.06 0.09 0.09 -0.25 0.15 0.31 0.63 0.31 0.01 -0.02 0.06 0.04 -0.02 -0.02 -0.01 -0.02 -0.01 0.03 0.01 0.05 -0.06 0.16 0.15 -0.02 -0.04 -0.02 0.03 0.11 -0.00 0.08 -0.02 -0.02 -0.07 -0.06 -0.02 0.05 -0.03 0.12 0.02 0.08 -0.01 0.04 -0.04 0.03 0.06 0.04 0.02 0.01 0.08 0.03 -0.00 0.01 -0.09 -0.02 -0.01 0.27 0.19 0.03 0.13 -0.00 -0.04 -0.05 -0.13 0.03 -0.08 0.02 0.02 -0.05 0.01 0.02 -0.05 0.09 0.13 0.17 0.15 0.03 0.17 0.28 0.69 0.80 0.03 0.03 0.05 0.05 0.01 -0.03 -0.01 0.04 0.01 0.05 0.03 0.08 -0.01 -0.00 0.06 -0.03 0.06 0.03 0.01 0.04 0.08 0.00 0.01 -0.02 -0.01 0.03 -0.01 0.02 -0.00 0.03 0.12 0.08 0.01 0.02 0.01 0.07 0.03 0.06 -0.02 0.01 0.07 0.05 0.06 -0.01 -0.06 0.09 0.03 -0.05 0.17 0.02 0.07 0.15 -0.01 0.06 0.13 -0.04 0.03 -0.04 -0.03 -0.03 -0.11 -0.04 -0.03 0.08 0.05 0.11 0.31 0.15 0.05 0.18 0.80 0.93 -0.02 -0.06 0.01 0.10 0.00 -0.01 0.13 0.14 0.07 0.14 0.04 -0.03 0.07 0.07 -0.01 0.02 -0.01 0.06 0.04 -0.02 0.06 0.00 -0.02 -0.01 0.02 0.01 -0.02 0.03 -0.02 0.07 0.02 0.08 0.02 0.04 0.08 0.13 0.02 -0.06 0.01 -0.06 0.03 0.00 0.03 -0.02 -0.00 0.01 -0.05 -0.05 0.17 0.12 0.12 0.02 0.13 0.08 -0.06 0.08 0.04 -0.03 0.09 0.02 -0.04 -0.06 0.05 0.09 0.08 0.02 0.14 0.05 0.16 -0.04 0.70 0.34 0.11 -0.01 0.07 0.00 0.09 0.02 -0.04 0.02 0.07 0.08 0.07 0.04 -0.01 0.08 0.09 0.09 -0.01 0.10 0.01 -0.04 0.01 -0.02 -0.04 0.02 0.01 -0.01 -0.01 -0.04 -0.04 -0.02 0.01 0.03 0.01 -0.01 -0.02 0.12 -0.04 -0.05 -0.09 -0.03 0.01 0.02 0.08 0.01 0.01 0.06 0.03 0.02 0.12 0.05 0.10 0.04 0.02 0.05 0.03 0.07 -0.04 -0.09 0.12 0.00 0.02 -0.02 0.11 0.01 0.12 -0.01 0.18 0.18 0.49 0.17 0.57 0.25 0.31 0.13 0.01 0.04 0.09 -0.03 -0.06 0.01 0.00 0.02 0.16 0.10 0.04 0.06 0.09 0.11 -0.02 0.02 0.01 0.04 0.00 -0.03 -0.07 -0.01 -0.02 -0.04 0.00 -0.07 0.14 0.02 0.11 0.03 0.10 0.02 0.05 -0.03 0.04 0.01 0.13 0.04 0.01 0.05 0.05 0.11 -0.01 -0.02 -0.08 -0.06 -0.02 0.14 0.09 0.09 0.03 0.00 0.03 0.03 -0.09 0.05 -0.03 -0.09 -0.01 -0.06 -0.21 0.23 -0.00 0.07 0.21 0.26 0.20 0.06 0.21 0.19 0.45 0.20 0.05 0.11 0.07 0.15 0.03 0.06 0.02 0.05 0.03 0.05 0.00 0.02 0.08 0.10 -0.00 -0.09 -0.04 0.04 -0.05 0.03 -0.00 0.03 0.05 0.03 0.06 0.00 0.09 0.03 0.01 0.01 0.06 0.01 0.03 0.03 0.03 0.03 0.14 0.08 0.02 0.05 -0.00 0.00 -0.07 -0.06 -0.07 -0.07 -0.14 -0.04 0.01 0.03 0.01 0.04 -0.09 -0.02 -0.09 0.01 0.07 -0.02 -0.03 0.30 0.14 0.20 0.30 0.14 0.38 0.33 0.26 0.17 0.32 0.67 0.56 0.17 0.13 0.12 0.01 0.10 0.07 0.37 -0.06 0.10 -0.03 -0.03 0.04 -0.00 0.08 -0.07 0.04 -0.06 -0.01 -0.02 -0.08 -0.01 0.00 0.13 0.01 0.06 0.02 0.06 -0.01 0.03 0.05 -0.05 -0.08 -0.05 -0.05 0.01 -0.00 0.02 -0.05 -0.01 0.01 -0.02 -0.00 -0.11 -0.05 0.02 0.01 0.06 -0.05 -0.14 -0.04 -0.01 0.06 0.02 -0.01 -0.03 -0.01 -0.03 -0.05 0.01 0.08 0.20 0.26 0.35 0.35 0.36 0.28 0.47 0.54 0.28 0.59 0.38 0.34 0.04 0.03 -0.02 0.07 0.10 0.05 0.57 0.08 0.08 -0.00 0.03 0.07 -0.05 0.04 -0.04 0.01 -0.08 0.06 -0.01 -0.03 0.09 0.03 0.13 0.01 0.05 -0.06 0.00 0.02 -0.07 -0.03 -0.03 -0.06 -0.10 -0.06 -0.12 -0.11 -0.10 -0.13 -0.13 -0.03 -0.04 -0.03 -0.07 0.23 0.14 -0.05 0.02 -0.04 -0.03 -0.02 -0.00 -0.04 -0.02 0.05 -0.01 -0.00 0.00 -0.06 0.01 0.22 0.29 0.43 0.35 0.34 0.14 0.17 0.35 0.30 0.26 0.52 0.57 0.56 0.50 0.06 0.06 0.05 0.05 0.43 0.44 0.21 0.03 0.05 -0.02 0.10 0.00 0.03 -0.02 0.03 -0.03 -0.04 -0.04 0.02 0.05 0.03 0.01 0.05 -0.04 -0.05 0.04 -0.02 -0.01 0.03 -0.04 -0.05 -0.02 -0.09 -0.13 -0.09 -0.20 -0.13 -0.09 -0.09 -0.07 -0.05 0.06 0.70 0.01 -0.04 -0.09 -0.08 -0.04 -0.04 -0.01 -0.04 0.02 0.01 0.09 -0.02 0.06 -0.09 -0.10 -0.03 0.24 0.41 0.16 0.19 0.12 0.15 0.21 0.27 0.19 0.40 0.46 0.34 0.26 0.28 0.04 0.08 0.08 0.63 0.53 0.30 0.22 -0.04 0.15 0.13 0.03 0.02 0.02 0.10 -0.09 -0.03 0.07 0.01 -0.07 0.00 -0.12 -0.05 -0.07 0.01 0.02 -0.04 -0.02 -0.03 -0.04 0.38 -0.06 -0.09 -0.11 -0.12 -0.15 -0.15 -0.10 -0.13 -0.08 0.02 0.18 0.28 -0.03 0.04 -0.10 0.09 -0.12 -0.07 0.03 -0.05 -0.01 0.07 0.04 0.02 0.14 -0.03 -0.05 0.03 0.12 0.18 0.14 0.20 0.14 0.24 0.24 0.27 0.23 0.34 0.19 0.39 0.25 0.07 0.18 -0.02 0.30 0.43 0.59 0.61 0.26 0.09 0.36 0.40 0.22 0.03 0.02 0.01 -0.06 -0.01 0.04 -0.04 0.03 -0.05 -0.02 -0.03 -0.05 -0.09 -0.04 0.02 0.02 -0.03 -0.04 -0.12 -0.05 -0.03 -0.12 -0.05 -0.11 -0.08 -0.12 -0.12 0.26 0.09 0.22 -0.02 -0.08 -0.12 -0.14 -0.06 -0.08 -0.03 0.01 -0.02 0.02 -0.04 -0.08 0.04 0.06 -0.01 -0.09 -0.02 0.10 0.27 0.11 0.16 0.13 0.20 0.18 0.17 0.19 0.10 0.16 0.18 0.30 0.11 0.27 0.01 0.18 0.56 0.82 0.43 0.17 0.16 0.50 0.66 0.54 0.19 0.21 0.18 0.04 -0.01 -0.11 -0.12 -0.06 -0.04 -0.06 -0.06 -0.01 -0.02 -0.07 -0.02 -0.06 -0.08 -0.00 -0.04 0.01 -0.03 -0.08 -0.05 -0.08 -0.07 -0.11 -0.09 0.30 0.26 0.48 -0.05 -0.01 -0.07 0.15 -0.05 -0.07 -0.03 0.10 0.00 0.01 -0.05 -0.00 -0.11 -0.05 0.02 -0.08 0.01 0.09 0.23 0.17 0.18 0.13 0.01 0.10 0.16 0.21 0.13 0.26 0.19 0.22 0.06 0.06 0.11 0.09 0.39 0.74 0.26 0.19 0.26 0.28 0.88 0.48 0.43 0.60 0.10 0.04 0.07 0.00 0.03 -0.07 -0.02 -0.04 -0.03 -0.02 -0.05 -0.09 -0.06 -0.10 -0.06 -0.05 -0.06 -0.01 -0.06 -0.01 0.01 -0.06 -0.10 -0.07 0.04 0.18 0.49 0.26 -0.13 -0.03 -0.07 0.14 -0.09 -0.06 -0.05 -0.04 -0.10 -0.03 0.07 0.03 0.06 -0.11 -0.04 -0.10 -0.19 -0.02 0.04 0.06 0.03 0.12 0.02 0.14 0.13 0.06 0.07 0.46 0.42 0.17 0.19 0.27 0.12 0.18 0.39 0.60 NaN NaN NaN NaN NaN 0.77 0.38 0.48 0.22 0.04 0.08 -0.05 -0.08 -0.07 -0.13 -0.07 0.06 -0.05 -0.07 -0.02 -0.02 -0.02 -0.01 -0.05 -0.03 -0.01 -0.04 -0.01 0.06 0.00 -0.10 -0.06 0.11 0.31 0.32 0.23 0.04 0.17 0.07 0.04 0.06 -0.03 -0.01 -0.10 -0.09 -0.13 -0.02 -0.08 0.08 -0.12 -0.09 -0.21 -0.12 -0.03 -0.11 0.04 0.06 0.11 0.04 -0.02 0.14 -0.01 0.12 0.38 0.22 0.22 0.05 0.22 0.18 0.18 0.52 NaN NaN NaN NaN NaN NaN 1.00 0.63 0.26 0.18 0.01 -0.07 -0.02 -0.08 -0.06 -0.07 -0.16 -0.01 -0.03 -0.03 -0.10 -0.07 0.03 0.02 -0.03 -0.02 -0.07 -0.03 0.00 -0.02 -0.07 -0.03 -0.10 0.18 0.31 0.35 -0.03 0.20 0.12 0.14 0.21 0.01 0.14 -0.05 -0.04 -0.04 -0.09 -0.09 -0.06 -0.01 -0.07 -0.04 -0.15 -0.04 -0.08 -0.12 0.09 -0.00 -0.10 -0.09 -0.01 -0.08 -0.07 0.01 0.41 0.31 0.67 0.05 -0.01 0.43 NaN 0.14 NaN NaN NaN NaN NaN NaN 1.35 0.28 0.18 0.15 0.05 -0.02 -0.12 -0.08 -0.00 -0.13 -0.09 -0.01 0.01 -0.03 -0.03 -0.07 -0.10 -0.07 -0.07 -0.06 -0.19 -0.12 -0.12 -0.17 -0.15 -0.12 0.06 0.38 0.21 0.01 -0.10 -0.14 0.21 0.25 0.22 0.22 0.15 0.05 -0.10 -0.00 -0.02 -0.11 -0.09 -0.03 -0.18 -0.14 0.04 -0.05 0.04 -0.08 -0.20 -0.08 -0.24 -0.08 -0.05 -0.09 0.08 0.29 0.62 0.60 -0.55 0.08 -0.05 0.01 0.18 NaN NaN NaN NaN NaN NaN NaN 0.42 0.46 0.21 0.13 -0.07 0.01 0.02 -0.11 -0.18 -0.11 -0.11 -0.09 -0.09 0.07 0.05 -0.11 -0.02 -0.19 -0.05 -0.14 -0.12 -0.08 -0.16 -0.11 -0.22 -0.11 0.07 0.01 -0.04 NaN 0.25 -0.07 0.17 0.47 0.11 0.19 -0.08 -0.01 -0.14 -0.07 -0.04 -0.03 0.02 -0.00 -0.22 -0.08 -0.03 -0.03 0.11 0.01 0.10 -0.03 -0.04 -0.08 -0.06 0.06 0.10 0.05 -0.39 -0.48 -0.14 -0.07 0.13 -0.18 0.05 NaN -0.20 0.08 0.01 0.30 NaN -0.17 0.27 -0.16 0.15 0.11 -0.15 -0.20 -0.07 0.04 -0.24 -0.13 -0.21 0.02 -0.14 -0.05 -0.07 -0.03 -0.08 -0.16 -0.13 -0.16 -0.15 -0.16 -0.20 -0.20 -0.26 -0.17 -0.14 -0.27 -0.24 0.25 0.39 0.46 0.42 0.39 -0.17 0.22 -0.14 -0.03 -0.10 -0.24 0.00 -0.07 -0.12 -0.06 -0.14 -0.02 -0.04 -0.10 0.04 0.17 0.40 0.10 0.10 0.09 0.05 -0.11 -0.01 -0.25 -0.13 -0.02 -0.30 -0.13 -0.04 -0.26 0.01 -0.13 -0.42 -0.31 0.16 0.34 0.06 -0.40 0.18 -0.42 0.59 0.56 0.11 -0.23 -0.01 -0.10 -0.18 -0.25 -0.01 0.01 -0.08 -0.09 0.02 -0.19 -0.15 -0.17 -0.18 -0.26 -0.13 -0.06 -0.13 -0.16 -0.34 -0.11 -0.05 0.09 -0.12 0.37 0.41 0.42 -0.16 -0.21 -0.08 -0.08 -0.10 0.08 0.04 -0.27 0.08 0.27 0.01 -0.04 -0.09 -0.06 -0.00 0.02 0.04 -0.10 -0.10 0.00 0.70 0.17 -0.09 -0.33 -0.29 -0.37 -0.21 -0.42 -0.26 -0.13 -0.26 -0.02 0.04 0.04 0.23 0.15 0.11 0.26 0.15 -0.04 0.34 0.32 0.73 0.64 0.35 0.14 -0.09 -0.02 -0.04 -0.16 -0.17 -0.07 -0.06 0.00 -0.03 -0.10 -0.03 -0.23 -0.19 -0.22 -0.12 -0.13 -0.12 -0.20 -0.24 -0.11 0.18 -0.31 0.26 0.32 0.38 -0.00 0.07 0.21 0.00 0.10 0.17 0.44 0.17 -0.07 0.25 -0.32 0.03 0.09 -0.08 0.03 -0.01 0.07 0.04 -0.02 -0.11 -0.03 -0.21 -0.17 -0.26 -0.25 -0.33 -0.22 -0.50 -0.37 -0.06 -0.13 -0.36 0.04 0.04 0.34 0.43 0.07 -0.12 0.14 -0.00 -0.06 -0.41 -0.26 0.29 -0.11 -0.02 -0.33 -0.04 0.00 0.00 -0.03 0.08 0.01 0.08 0.11 -0.01 -0.06 -0.23 -0.26 -0.14 -0.28 -0.30 -0.25 -0.23 -0.17 -0.12 -0.13 0.38 0.16 0.67 0.52 0.11 -0.04 0.37 0.37 0.44 -0.04 0.41 0.87 0.48 0.27 0.07 -0.09 -0.19 0.07 0.08 -0.01 0.15 0.07 -0.07 -0.12 -0.21 -0.09 -0.23 -0.06 -0.13 -0.34 -0.54 -0.52 -0.53 -0.38 -0.00 0.02 -0.34 0.02 0.09 0.31 0.59 0.12 0.38 -0.20 0.17 -0.16 -0.61 -0.51 -0.68 0.01 -0.28 -0.37 -0.55 -0.21 -0.12 0.06 -0.03 -0.02 0.09 0.07 -0.09 -0.10 -0.13 -0.27 -0.24 -0.01 -0.18 -0.23 -0.16 -0.18 -0.14 -0.18 0.12 0.25 0.45 0.04 0.36 0.10 0.15 0.47 0.64 0.11 0.14 0.57 0.20 0.00 0.01 0.05 0.03 