# vtk DataFile Version 2.0
VTK from Matlab
ASCII
DATASET STRUCTURED_GRID
DIMENSIONS 72 64 4
POINTS 18432 float
-177.50 -85.88 2.48 -172.50 -85.88 2.48 -167.50 -85.88 2.48 -162.50 -85.88 2.48 -157.50 -85.88 2.48 -152.50 -85.88 2.48 -147.50 -85.88 2.48 -142.50 -85.88 2.48 -137.50 -85.88 2.48 -132.50 -85.88 2.48 -127.50 -85.88 2.48 -122.50 -85.88 2.48 -117.50 -85.88 2.48 -112.50 -85.88 2.48 -107.50 -85.88 2.48 -102.50 -85.88 2.48 -97.50 -85.88 2.48 -92.50 -85.88 2.48 -87.50 -85.88 2.48 -82.50 -85.88 2.48 -77.50 -85.88 2.48 -72.50 -85.88 2.48 -67.50 -85.88 2.48 -62.50 -85.88 2.48 -57.50 -85.88 2.48 -52.50 -85.88 2.48 -47.50 -85.88 2.48 -42.50 -85.88 2.48 -37.50 -85.88 2.48 -32.50 -85.88 2.48 -27.50 -85.88 2.48 -22.50 -85.88 2.48 -17.50 -85.88 2.48 -12.50 -85.88 2.48 -7.50 -85.88 2.48 -2.50 -85.88 2.48 2.50 -85.88 2.48 7.50 -85.88 2.48 12.50 -85.88 2.48 17.50 -85.88 2.48 22.50 -85.88 2.48 27.50 -85.88 2.48 32.50 -85.88 2.48 37.50 -85.88 2.48 42.50 -85.88 2.48 47.50 -85.88 2.48 52.50 -85.88 2.48 57.50 -85.88 2.48 62.50 -85.88 2.48 67.50 -85.88 2.48 72.50 -85.88 2.48 77.50 -85.88 2.48 82.50 -85.88 2.48 87.50 -85.88 2.48 92.50 -85.88 2.48 97.50 -85.88 2.48 102.50 -85.88 2.48 107.50 -85.88 2.48 112.50 -85.88 2.48 117.50 -85.88 2.48 122.50 -85.88 2.48 127.50 -85.88 2.48 132.50 -85.88 2.48 137.50 -85.88 2.48 142.50 -85.88 2.48 147.50 -85.88 2.48 152.50 -85.88 2.48 157.50 -85.88 2.48 162.50 -85.88 2.48 167.50 -85.88 2.48 172.50 -85.88 2.48 177.50 -85.88 2.48 -177.50 -80.50 2.48 -172.50 -80.50 2.48 -167.50 -80.50 2.48 -162.50 -80.50 2.48 -157.50 -80.50 2.48 -152.50 -80.50 2.48 -147.50 -80.50 2.48 -142.50 -80.50 2.48 -137.50 -80.50 2.48 -132.50 -80.50 2.48 -127.50 -80.50 2.48 -122.50 -80.50 2.48 -117.50 -80.50 2.48 -112.50 -80.50 2.48 -107.50 -80.50 2.48 -102.50 -80.50 2.48 -97.50 -80.50 2.48 -92.50 -80.50 2.48 -87.50 -80.50 2.48 -82.50 -80.50 2.48 -77.50 -80.50 2.48 -72.50 -80.50 2.48 -67.50 -80.50 2.48 -62.50 -80.50 2.48 -57.50 -80.50 2.48 -52.50 -80.50 2.48 -47.50 -80.50 2.48 -42.50 -80.50 2.48 -37.50 -80.50 2.48 -32.50 -80.50 2.48 -27.50 -80.50 2.48 -22.50 -80.50 2.48 -17.50 -80.50 2.48 -12.50 -80.50 2.48 -7.50 -80.50 2.48 -2.50 -80.50 2.48 2.50 -80.50 2.48 7.50 -80.50 2.48 12.50 -80.50 2.48 17.50 -80.50 2.48 22.50 -80.50 2.48 27.50 -80.50 2.48 32.50 -80.50 2.48 37.50 -80.50 2.48 42.50 -80.50 2.48 47.50 -80.50 2.48 52.50 -80.50 2.48 57.50 -80.50 2.48 62.50 -80.50 2.48 67.50 -80.50 2.48 72.50 -80.50 2.48 77.50 -80.50 2.48 82.50 -80.50 2.48 87.50 -80.50 2.48 92.50 -80.50 2.48 97.50 -80.50 2.48 102.50 -80.50 2.48 107.50 -80.50 2.48 112.50 -80.50 2.48 117.50 -80.50 2.48 122.50 -80.50 2.48 127.50 -80.50 2.48 132.50 -80.50 2.48 137.50 -80.50 2.48 142.50 -80.50 2.48 147.50 -80.50 2.48 152.50 -80.50 2.48 157.50 -80.50 2.48 162.50 -80.50 2.48 167.50 -80.50 2.48 172.50 -80.50 2.48 177.50 -80.50 2.48 -177.50 -78.12 2.48 -172.50 -78.12 2.48 -167.50 -78.12 2.48 -162.50 -78.12 2.48 -157.50 -78.12 2.48 -152.50 -78.12 2.48 -147.50 -78.12 2.48 -142.50 -78.12 2.48 -137.50 -78.12 2.48 -132.50 -78.12 2.48 -127.50 -78.12 2.48 -122.50 -78.12 2.48 -117.50 -78.12 2.48 -112.50 -78.12 2.48 -107.50 -78.12 2.48 -102.50 -78.12 2.48 -97.50 -78.12 2.48 -92.50 -78.12 2.48 -87.50 -78.12 2.48 -82.50 -78.12 2.48 -77.50 -78.12 2.48 -72.50 -78.12 2.48 -67.50 -78.12 2.48 -62.50 -78.12 2.48 -57.50 -78.12 2.48 -52.50 -78.12 2.48 -47.50 -78.12 2.48 -42.50 -78.12 2.48 -37.50 -78.12 2.48 -32.50 -78.12 2.48 -27.50 -78.12 2.48 -22.50 -78.12 2.48 -17.50 -78.12 2.48 -12.50 -78.12 2.48 -7.50 -78.12 2.48 -2.50 -78.12 2.48 2.50 -78.12 2.48 7.50 -78.12 2.48 12.50 -78.12 2.48 17.50 -78.12 2.48 22.50 -78.12 2.48 27.50 -78.12 2.48 32.50 -78.12 2.48 37.50 -78.12 2.48 42.50 -78.12 2.48 47.50 -78.12 2.48 52.50 -78.12 2.48 57.50 -78.12 2.48 62.50 -78.12 2.48 67.50 -78.12 2.48 72.50 -78.12 2.48 77.50 -78.12 2.48 82.50 -78.12 2.48 87.50 -78.12 2.48 92.50 -78.12 2.48 97.50 -78.12 2.48 102.50 -78.12 2.48 107.50 -78.12 2.48 112.50 -78.12 2.48 117.50 -78.12 2.48 122.50 -78.12 2.48 127.50 -78.12 2.48 132.50 -78.12 2.48 137.50 -78.12 2.48 142.50 -78.12 2.48 147.50 -78.12 2.48 152.50 -78.12 2.48 157.50 -78.12 2.48 162.50 -78.12 2.48 167.50 -78.12 2.48 172.50 -78.12 2.48 177.50 -78.12 2.48 -177.50 -76.00 2.48 -172.50 -76.00 2.48 -167.50 -76.00 2.48 -162.50 -76.00 2.48 -157.50 -76.00 2.48 -152.50 -76.00 2.48 -147.50 -76.00 2.48 -142.50 -76.00 2.48 -137.50 -76.00 2.48 -132.50 -76.00 2.48 -127.50 -76.00 2.48 -122.50 -76.00 2.48 -117.50 -76.00 2.48 -112.50 -76.00 2.48 -107.50 -76.00 2.48 -102.50 -76.00 2.48 -97.50 -76.00 2.48 -92.50 -76.00 2.48 -87.50 -76.00 2.48 -82.50 -76.00 2.48 -77.50 -76.00 2.48 -72.50 -76.00 2.48 -67.50 -76.00 2.48 -62.50 -76.00 2.48 -57.50 -76.00 2.48 -52.50 -76.00 2.48 -47.50 -76.00 2.48 -42.50 -76.00 2.48 -37.50 -76.00 2.48 -32.50 -76.00 2.48 -27.50 -76.00 2.48 -22.50 -76.00 2.48 -17.50 -76.00 2.48 -12.50 -76.00 2.48 -7.50 -76.00 2.48 -2.50 -76.00 2.48 2.50 -76.00 2.48 7.50 -76.00 2.48 12.50 -76.00 2.48 17.50 -76.00 2.48 22.50 -76.00 2.48 27.50 -76.00 2.48 32.50 -76.00 2.48 37.50 -76.00 2.48 42.50 -76.00 2.48 47.50 -76.00 2.48 52.50 -76.00 2.48 57.50 -76.00 2.48 62.50 -76.00 2.48 67.50 -76.00 2.48 72.50 -76.00 2.48 77.50 -76.00 2.48 82.50 -76.00 2.48 87.50 -76.00 2.48 92.50 -76.00 2.48 97.50 -76.00 2.48 102.50 -76.00 2.48 107.50 -76.00 2.48 112.50 -76.00 2.48 117.50 -76.00 2.48 122.50 -76.00 2.48 127.50 -76.00 2.48 132.50 -76.00 2.48 137.50 -76.00 2.48 142.50 -76.00 2.48 147.50 -76.00 2.48 152.50 -76.00 2.48 157.50 -76.00 2.48 162.50 -76.00 2.48 167.50 -76.00 2.48 172.50 -76.00 2.48 177.50 -76.00 2.48 -177.50 -74.00 2.48 -172.50 -74.00 2.48 -167.50 -74.00 2.48 -162.50 -74.00 2.48 -157.50 -74.00 2.48 -152.50 -74.00 2.48 -147.50 -74.00 2.48 -142.50 -74.00 2.48 -137.50 -74.00 2.48 -132.50 -74.00 2.48 -127.50 -74.00 2.48 -122.50 -74.00 2.48 -117.50 -74.00 2.48 -112.50 -74.00 2.48 -107.50 -74.00 2.48 -102.50 -74.00 2.48 -97.50 -74.00 2.48 -92.50 -74.00 2.48 -87.50 -74.00 2.48 -82.50 -74.00 2.48 -77.50 -74.00 2.48 -72.50 -74.00 2.48 -67.50 -74.00 2.48 -62.50 -74.00 2.48 -57.50 -74.00 2.48 -52.50 -74.00 2.48 -47.50 -74.00 2.48 -42.50 -74.00 2.48 -37.50 -74.00 2.48 -32.50 -74.00 2.48 -27.50 -74.00 2.48 -22.50 -74.00 2.48 -17.50 -74.00 2.48 -12.50 -74.00 2.48 -7.50 -74.00 2.48 -2.50 -74.00 2.48 2.50 -74.00 2.48 7.50 -74.00 2.48 12.50 -74.00 2.48 17.50 -74.00 2.48 22.50 -74.00 2.48 27.50 -74.00 2.48 32.50 -74.00 2.48 37.50 -74.00 2.48 42.50 -74.00 2.48 47.50 -74.00 2.48 52.50 -74.00 2.48 57.50 -74.00 2.48 62.50 -74.00 2.48 67.50 -74.00 2.48 72.50 -74.00 2.48 77.50 -74.00 2.48 82.50 -74.00 2.48 87.50 -74.00 2.48 92.50 -74.00 2.48 97.50 -74.00 2.48 102.50 -74.00 2.48 107.50 -74.00 2.48 112.50 -74.00 2.48 117.50 -74.00 2.48 122.50 -74.00 2.48 127.50 -74.00 2.48 132.50 -74.00 2.48 137.50 -74.00 2.48 142.50 -74.00 2.48 147.50 -74.00 2.48 152.50 -74.00 2.48 157.50 -74.00 2.48 162.50 -74.00 2.48 167.50 -74.00 2.48 172.50 -74.00 2.48 177.50 -74.00 2.48 -177.50 -71.88 2.48 -172.50 -71.88 2.48 -167.50 -71.88 2.48 -162.50 -71.88 2.48 -157.50 -71.88 2.48 -152.50 -71.88 2.48 -147.50 -71.88 2.48 -142.50 -71.88 2.48 -137.50 -71.88 2.48 -132.50 -71.88 2.48 -127.50 -71.88 2.48 -122.50 -71.88 2.48 -117.50 -71.88 2.48 -112.50 -71.88 2.48 -107.50 -71.88 2.48 -102.50 -71.88 2.48 -97.50 -71.88 2.48 -92.50 -71.88 2.48 -87.50 -71.88 2.48 -82.50 -71.88 2.48 -77.50 -71.88 2.48 -72.50 -71.88 2.48 -67.50 -71.88 2.48 -62.50 -71.88 2.48 -57.50 -71.88 2.48 -52.50 -71.88 2.48 -47.50 -71.88 2.48 -42.50 -71.88 2.48 -37.50 -71.88 2.48 -32.50 -71.88 2.48 -27.50 -71.88 2.48 -22.50 -71.88 2.48 -17.50 -71.88 2.48 -12.50 -71.88 2.48 -7.50 -71.88 2.48 -2.50 -71.88 2.48 2.50 -71.88 2.48 7.50 -71.88 2.48 12.50 -71.88 2.48 17.50 -71.88 2.48 22.50 -71.88 2.48 27.50 -71.88 2.48 32.50 -71.88 2.48 37.50 -71.88 2.48 42.50 -71.88 2.48 47.50 -71.88 2.48 52.50 -71.88 2.48 57.50 -71.88 2.48 62.50 -71.88 2.48 67.50 -71.88 2.48 72.50 -71.88 2.48 77.50 -71.88 2.48 82.50 -71.88 2.48 87.50 -71.88 2.48 92.50 -71.88 2.48 97.50 -71.88 2.48 102.50 -71.88 2.48 107.50 -71.88 2.48 112.50 -71.88 2.48 117.50 -71.88 2.48 122.50 -71.88 2.48 127.50 -71.88 2.48 132.50 -71.88 2.48 137.50 -71.88 2.48 142.50 -71.88 2.48 147.50 -71.88 2.48 152.50 -71.88 2.48 157.50 -71.88 2.48 162.50 -71.88 2.48 167.50 -71.88 2.48 172.50 -71.88 2.48 177.50 -71.88 2.48 -177.50 -69.50 2.48 -172.50 -69.50 2.48 -167.50 -69.50 2.48 -162.50 -69.50 2.48 -157.50 -69.50 2.48 -152.50 -69.50 2.48 -147.50 -69.50 2.48 -142.50 -69.50 2.48 -137.50 -69.50 2.48 -132.50 -69.50 2.48 -127.50 -69.50 2.48 -122.50 -69.50 2.48 -117.50 -69.50 2.48 -112.50 -69.50 2.48 -107.50 -69.50 2.48 -102.50 -69.50 2.48 -97.50 -69.50 2.48 -92.50 -69.50 2.48 -87.50 -69.50 2.48 -82.50 -69.50 2.48 -77.50 -69.50 2.48 -72.50 -69.50 2.48 -67.50 -69.50 2.48 -62.50 -69.50 2.48 -57.50 -69.50 2.48 -52.50 -69.50 2.48 -47.50 -69.50 2.48 -42.50 -69.50 2.48 -37.50 -69.50 2.48 -32.50 -69.50 2.48 -27.50 -69.50 2.48 -22.50 -69.50 2.48 -17.50 -69.50 2.48 -12.50 -69.50 2.48 -7.50 -69.50 2.48 -2.50 -69.50 2.48 2.50 -69.50 2.48 7.50 -69.50 2.48 12.50 -69.50 2.48 17.50 -69.50 2.48 22.50 -69.50 2.48 27.50 -69.50 2.48 32.50 -69.50 2.48 37.50 -69.50 2.48 42.50 -69.50 2.48 47.50 -69.50 2.48 52.50 -69.50 2.48 57.50 -69.50 2.48 62.50 -69.50 2.48 67.50 -69.50 2.48 72.50 -69.50 2.48 77.50 -69.50 2.48 82.50 -69.50 2.48 87.50 -69.50 2.48 92.50 -69.50 2.48 97.50 -69.50 2.48 102.50 -69.50 2.48 107.50 -69.50 2.48 112.50 -69.50 2.48 117.50 -69.50 2.48 122.50 -69.50 2.48 127.50 -69.50 2.48 132.50 -69.50 2.48 137.50 -69.50 2.48 142.50 -69.50 2.48 147.50 -69.50 2.48 152.50 -69.50 2.48 157.50 -69.50 2.48 162.50 -69.50 2.48 167.50 -69.50 2.48 172.50 -69.50 2.48 177.50 -69.50 2.48 -177.50 -67.00 2.48 -172.50 -67.00 2.48 -167.50 -67.00 2.48 -162.50 -67.00 2.48 -157.50 -67.00 2.48 -152.50 -67.00 2.48 -147.50 -67.00 2.48 -142.50 -67.00 2.48 -137.50 -67.00 2.48 -132.50 -67.00 2.48 -127.50 -67.00 2.48 -122.50 -67.00 2.48 -117.50 -67.00 2.48 -112.50 -67.00 2.48 -107.50 -67.00 2.48 -102.50 -67.00 2.48 -97.50 -67.00 2.48 -92.50 -67.00 2.48 -87.50 -67.
[...]
POINT_DATA 18432
SCALARS RH float
LOOKUP_TABLE default
NaN NaN 62.16 62.68 61.68 62.32 65.46 68.83 70.04 69.21 73.90 NaN NaN NaN NaN NaN NaN NaN NaN 79.76 72.72 70.26 70.06 72.68 76.74 82.90 87.18 92.94 NaN NaN NaN NaN NaN NaN NaN NaN NaN NaN NaN NaN NaN NaN NaN NaN NaN NaN NaN NaN NaN NaN NaN NaN NaN NaN NaN NaN NaN NaN NaN NaN NaN NaN NaN NaN NaN NaN NaN NaN NaN NaN NaN NaN 63.28 62.37 61.73 61.81 62.54 63.30 64.45 65.00 64.91 66.40 70.47 76.93 84.70 93.60 NaN NaN NaN NaN 83.99 67.19 61.10 57.93 56.83 56.79 57.10 57.57 57.93 56.80 56.15 56.02 57.42 59.73 65.92 87.55 NaN NaN NaN NaN NaN NaN NaN NaN NaN NaN NaN NaN NaN NaN NaN NaN NaN NaN NaN NaN NaN NaN NaN NaN NaN NaN NaN NaN NaN NaN NaN NaN 89.90 61.30 62.00 64.60 65.02 64.12 64.90 64.88 65.25 66.22 67.87 70.06 71.62 72.04 72.11 80.70 85.76 94.88 94.84 88.26 85.33 86.09 88.22 88.44 79.66 69.35 67.88 65.19 63.75 62.74 61.90 61.03 60.47 59.33 58.37 59.57 61.07 62.12 67.61 NaN NaN NaN NaN NaN NaN NaN NaN NaN NaN NaN NaN NaN NaN NaN NaN NaN NaN NaN NaN NaN NaN NaN NaN NaN NaN NaN NaN NaN NaN NaN NaN NaN NaN NaN 62.92 66.83 66.69 65.44 66.52 66.97 68.02 68.32 69.01 70.43 71.97 75.40 80.45 88.81 86.48 92.18 85.26 79.91 75.66 74.22 73.80 74.65 77.25 75.30 72.04 72.29 71.86 68.85 67.05 64.84 63.14 61.72 60.13 59.31 60.43 61.77 62.98 NaN NaN NaN NaN NaN NaN NaN NaN NaN NaN NaN NaN NaN NaN NaN NaN NaN NaN NaN NaN NaN NaN NaN NaN NaN NaN NaN NaN NaN NaN NaN NaN NaN NaN NaN 58.80 64.02 66.85 66.84 68.97 68.94 69.63 70.09 70.47 71.00 71.48 71.86 72.26 73.43 73.51 72.87 72.71 71.08 68.99 68.36 70.54 72.60 73.03 71.74 71.43 73.02 78.50 72.78 68.69 66.40 64.45 62.98 61.86 61.21 60.38 60.55 60.83 60.69 NaN NaN NaN NaN NaN NaN NaN NaN NaN NaN NaN NaN NaN NaN 83.66 62.01 NaN NaN NaN NaN NaN NaN NaN NaN NaN NaN NaN NaN NaN NaN NaN NaN NaN NaN 70.82 63.69 67.10 67.97 70.97 70.94 70.94 71.03 71.45 71.26 71.35 71.30 71.17 70.59 69.99 69.86 69.13 68.04 67.16 67.20 67.87 67.73 66.82 65.69 66.54 69.03 72.46 74.30 68.68 66.22 64.62 63.42 63.05 62.71 62.44 62.40 63.06 62.79 61.08 58.86 63.99 NaN NaN 66.62 64.75 68.00 70.21 NaN NaN NaN NaN NaN NaN 58.93 62.92 NaN NaN NaN NaN NaN NaN NaN NaN NaN NaN NaN NaN NaN NaN NaN NaN NaN 72.49 70.52 69.44 70.50 71.37 71.00 70.59 70.61 70.80 70.46 70.54 70.49 70.21 69.59 68.91 68.36 67.46 67.13 66.72 66.33 65.81 65.45 64.73 64.62 65.54 68.88 73.01 68.99 66.07 64.40 63.45 63.04 63.28 63.30 62.99 63.26 64.13 64.61 63.96 63.31 63.42 63.57 64.15 64.50 64.70 65.98 68.06 68.27 71.42 NaN NaN NaN NaN 64.25 63.72 67.10 NaN NaN NaN NaN NaN NaN NaN NaN NaN NaN NaN NaN 77.81 65.21 60.12 62.91 63.35 67.94 71.37 72.15 70.16 69.79 69.60 69.15 69.20 68.98 68.96 68.91 68.56 68.04 67.36 66.99 66.43 66.15 65.89 65.22 64.58 64.31 64.01 64.00 64.39 65.58 69.00 66.06 62.91 62.14 62.21 62.22 62.95 63.36 63.78 63.97 64.42 65.25 65.35 65.60 65.83 66.15 66.87 67.55 68.04 69.03 69.90 70.66 70.76 68.91 68.09 63.57 63.89 65.38 63.65 64.29 64.89 64.06 65.70 67.50 71.68 71.26 67.44 66.67 67.56 66.88 69.24 68.36 61.45 60.10 61.92 64.69 67.15 69.33 70.50 70.47 67.80 67.54 67.23 67.05 67.06 66.65 66.52 66.71 66.12 65.99 65.84 65.75 65.07 64.76 64.57 64.03 63.66 63.22 63.16 62.90 63.17 63.23 64.15 64.92 59.72 59.61 60.72 61.71 62.08 62.98 63.68 63.88 64.49 65.13 66.17 66.78 67.03 67.78 68.34 68.96 69.53 70.13 70.46 70.89 71.55 72.01 70.99 68.98 68.00 66.96 65.99 65.48 65.33 65.13 65.10 65.02 64.33 64.13 65.15 66.10 67.65 68.40 68.84 68.51 67.30 66.05 65.95 66.51 67.00 67.60 67.99 67.93 64.70 64.60 64.36 64.11 63.98 63.66 63.62 63.81 63.72 64.04 63.87 63.75 63.44 62.97 62.96 62.65 62.29 62.10 61.98 62.11 62.03 61.89 61.48 61.12 60.42 59.93 60.47 61.11 61.44 62.14 62.72 63.50 64.14 64.83 65.69 66.58 67.20 67.72 68.57 68.97 69.55 69.72 69.78 70.00 70.39 70.54 70.36 69.77 68.94 68.19 67.65 67.13 66.79 66.45 66.16 66.11 65.70 65.62 66.33 66.45 66.76 67.05 67.62 67.39 66.91 66.36 65.71 65.58 65.47 65.39 65.48 65.08 61.32 61.06 60.60 60.48 60.34 60.06 59.83 60.07 60.65 60.87 60.95 61.12 60.82 61.03 60.94 60.90 60.40 60.37 60.41 60.54 60.44 60.61 60.40 59.83 59.43 59.31 59.59 60.14 60.43 61.28 61.78 62.15 62.99 63.64 64.39 65.06 65.61 66.20 66.73 67.51 67.89 68.10 68.22 68.38 68.55 68.55 68.52 68.32 68.06 67.62 67.29 67.05 67.09 66.92 66.68 66.30 66.11 66.29 66.23 66.17 65.83 65.67 65.70 65.20 64.73 63.93 63.17 62.88 62.74 62.71 62.53 61.87 57.31 57.26 56.98 56.91 57.11 56.74 56.61 57.29 57.92 58.15 58.28 58.49 58.34 58.39 58.52 58.44 58.21 58.31 58.35 58.13 58.79 60.22 60.61 59.30 58.31 57.83 58.02 58.17 58.86 59.26 59.46 60.43 61.34 62.18 62.40 62.82 63.26 63.75 64.10 64.61 65.23 65.50 65.47 65.86 65.96 65.84 65.84 65.87 65.59 65.60 65.62 65.61 65.19 65.32 65.17 64.75 64.51 64.65 64.51 64.42 63.94 63.79 63.18 62.25 61.30 60.31 59.79 59.38 58.75 58.91 58.27 57.82 53.57 53.74 53.50 53.62 53.91 54.16 54.59 55.11 55.16 55.32 55.40 55.27 55.28 55.76 56.04 56.13 56.09 56.11 56.07 56.13 57.42 61.34 57.69 56.04 55.29 55.05 54.78 55.21 55.31 56.18 56.95 57.87 58.92 59.15 59.76 60.11 60.24 60.57 61.07 61.33 61.54 61.50 61.70 61.68 61.68 61.62 61.51 61.55 61.64 62.13 62.13 62.16 62.27 62.47 62.75 62.34 62.16 62.07 61.63 61.64 61.32 60.63 60.05 58.83 57.64 56.78 56.20 55.60 55.14 54.68 54.20 53.67 49.94 50.64 50.96 51.04 51.26 51.62 52.05 52.38 52.08 51.80 52.05 52.30 52.40 52.71 53.26 53.20 53.64 53.57 53.49 53.78 56.52 61.33 54.33 51.69 51.43 51.33 51.93 52.01 52.28 53.12 54.12 54.96 55.74 55.92 56.29 56.75 57.26 57.78 57.85 57.90 57.63 57.40 57.28 57.19 56.96 57.01 56.88 56.94 57.32 57.52 57.63 57.93 58.51 58.99 59.15 59.01 59.01 58.68 58.30 58.32 57.65 57.17 56.41 55.41 54.05 53.20 52.15 51.56 51.44 51.25 50.96 50.07 47.30 48.25 48.59 48.31 48.32 48.72 48.77 49.02 48.58 48.69 49.18 49.78 49.97 50.34 50.75 50.82 51.01 50.97 50.81 50.71 53.76 60.01 50.93 47.88 47.14 48.21 49.40 50.00 50.62 50.85 51.12 51.53 52.23 52.55 52.98 53.80 54.39 54.57 54.28 53.60 52.94 53.12 53.21 52.84 52.42 52.39 52.45 52.63 52.88 52.78 52.83 53.58 54.19 54.76 55.04 55.02 54.89 54.80 55.22 54.92 54.06 53.25 52.40 50.81 49.53 48.59 48.35 48.08 48.31 49.59 49.45 47.60 45.38 45.86 46.33 46.20 46.22 46.26 46.18 45.93 45.92 46.29 46.70 47.16 47.50 48.09 48.22 48.47 48.26 48.25 47.87 47.31 48.72 54.33 47.44 45.18 44.43 45.56 46.79 47.46 47.75 48.19 48.47 48.81 49.45 49.99 50.58 51.11 51.12 50.33 49.50 48.58 48.20 48.13 48.19 48.10 47.92 47.73 47.84 48.19 48.69 48.77 49.28 49.65 49.95 50.27 50.81 50.92 51.17 51.10 50.45 49.61 48.91 48.22 47.26 45.88 45.01 45.38 45.55 45.31 45.78 51.25 50.11 46.35 43.80 44.21 44.57 44.55 44.51 44.40 44.58 44.24 44.11 44.48 44.74 45.08 45.41 46.05 46.55 46.51 46.16 45.91 45.21 44.02 43.52 51.30 48.28 44.78 42.31 43.06 44.13 44.51 45.25 45.86 46.43 47.01 47.51 47.98 48.45 48.13 46.98 45.46 44.07 43.43 43.68 44.02 43.95 44.25 44.33 44.46 44.34 44.67 45.48 45.55 45.38 45.67 45.52 45.66 46.01 46.15 45.98 45.32 44.35 43.65 43.57 42.88 41.99 41.18 41.66 44.11 43.62 43.50 43.59 45.19 48.33 44.79 42.44 42.83 43.50 43.54 43.51 43.48 43.35 43.29 43.27 43.50 44.05 44.31 44.63 45.09 45.19 45.02 44.50 43.66 42.25 40.18 37.74 43.57 45.71 45.42 41.72 41.09 42.45 43.25 44.05 44.58 45.05 45.64 45.87 45.68 44.88 44.11 42.60 40.15 38.15 37.83 38.95 39.31 40.69 41.86 42.36 42.49 42.16 42.16 41.78 41.25 40.93 41.02 41.05 40.72 40.61 40.37 39.83 39.03 38.33 38.49 38.94 38.73 37.54 37.39 38.86 41.33 42.59 42.47 42.06 42.44 44.66 45.66 41.31 42.07 42.92 42.91 42.66 42.99 42.85 42.94 42.98 43.12 44.10 44.80 45.04 44.84 44.51 44.05 42.81 41.00 38.86 35.77 31.73 35.32 47.83 47.08 42.20 40.67 41.41 42.34 43.16 43.79 44.41 44.40 44.04 43.07 41.70 40.13 37.74 34.61 31.85 31.29 34.30 36.40 38.34 39.05 38.89 39.24 39.10 38.75 37.88 37.28 36.97 36.84 36.49 36.14 35.57 34.93 34.25 33.33 33.13 34.93 36.67 36.18 34.60 34.98 38.41 46.45 44.95 42.10 41.29 41.03 42.54 43.13 40.36 41.13 42.24 42.42 42.58 42.82 42.67 43.29 44.03 43.99 45.04 45.61 45.27 44.51 43.60 41.82 40.03 37.73 34.66 30.66 25.78 26.09 54.14 48.52 42.88 41.66 41.53 41.97 42.88 43.78 44.20 43.61 42.52 40.82 38.68 35.87 32.27 28.43 25.29 26.14 36.63 40.28 38.98 36.79 35.65 36.22 36.54 36.17 35.36 34.87 34.43 33.79 32.93 32.13 31.23 30.07 29.08 28.28 29.32 35.38 37.72 35.23 32.78 34.63 36.74 45.65 46.55 41.91 40.04 39.36 39.72 40.09 39.49 40.57 41.71 42.01 42.69 43.25 43.61 44.64 45.54 46.02 46.26 46.07 45.23 43.72 41.65 39.17 36.50 33.36 29.56 25.15 20.11 20.06 58.31 51.11 45.42 46.14 44.44 43.14 43.40 43.76 43.46 42.10 40.37 37.89 34.65 30.93 26.70 22.55 19.74 23.67 38.71 48.70 41.75 35.43 33.97 35.27 35.90 35.53 34.53 33.70 32.90 31.68 30.16 28.75 27.40 26.11 25.07 24.76 27.26 36.17 39.66 36.06 33.48 34.41 37.10 45.55 49.03 40.99 38.42 37.68 38.21 39.04 39.78 40.77 41.55 42.37 43.14 43.98 45.19 46.42 46.94 47.47 47.34 46.30 44.48 41.81 38.95 35.34 31.66 27.71 23.63 19.52 15.34 16.41 64.08 55.36 50.19 55.37 51.27 45.43 44.30 43.62 42.44 40.22 37.64 34.06 30.00 25.46 21.44 18.11 16.97 25.49 37.50 48.23 45.47 34.67 33.30 36.49 37.32 36.23 34.47 33.02 31.47 29.44 27.94 26.21 24.75 23.71 23.11 23.73 27.75 37.03 39.26 37.07 35.09 34.27 38.11 46.38 50.57 39.40 36.72 36.81 37.79 39.09 41.02 42.13 42.90 44.04 44.69 45.58 47.17 48.07 48.29 48.24 46.78 45.10 42.27 38.83 35.11 30.34 26.05 21.96 18.11 14.78 11.80 13.48 NaN 62.18 56.93 62.45 57.95 49.00 45.57 43.22 40.98 37.94 34.40 29.96 25.29 20.67 17.75 16.20 17.87 31.25 42.56 51.31 47.89 33.90 35.17 42.18 40.10 37.33 34.99 32.90 30.53 28.18 26.49 24.67 23.30 22.80 23.28 24.78 29.47 37.60 38.93 37.99 37.59 36.76 41.88 50.30 48.46 37.75 36.24 37.70 38.73 40.27 44.30 46.15 46.93 47.36 47.57 48.44 49.69 49.52 49.56 48.27 45.54 42.77 39.28 35.11 30.25 24.97 20.34 16.63 13.55 11.23 9.70 11.93 NaN 67.83 63.48 64.33 65.84 57.40 46.42 42.05 38.26 34.24 29.76 24.95 20.38 17.31 16.07 16.98 22.82 35.85 47.71 55.14 48.54 34.92 43.14 55.23 42.68 39.01 36.02 33.64 30.89 28.92 27.45 25.92 24.61 24.64 26.24 28.15 32.89 39.64 40.36 39.86 39.78 40.35 46.39 52.08 43.31 37.11 37.65 41.34 41.60 43.18 50.44 51.19 51.85 51.31 51.32 52.26 52.22 50.77 49.42 47.07 43.55 39.39 34.74 29.51 23.95 18.92 15.16 12.45 10.48 9.39 9.61 15.06 NaN 72.01 66.63 66.52 70.03 66.06 46.46 39.22 34.67 29.47 24.69 20.37 17.55 16.34 17.09 20.86 30.66 43.02 52.57 56.60 52.00 38.60 48.23 63.51 46.18 42.27 38.87 36.74 34.60 33.46 32.20 30.64 29.61 29.88 31.27 33.36 36.23 41.12 44.06 44.29 44.01 45.66 50.55 50.07 41.06 39.38 42.47 46.17 46.40 48.97 56.25 56.18 56.11 55.54 55.19 55.89 54.59 50.90 47.87 44.25 39.91 34.59 28.41 22.54 17.62 14.05 11.80 10.32 9.46 9.66 12.37 25.00 NaN 73.87 68.11 70.11 71.29 65.88 44.98 34.99 29.22 24.32 20.72 18.34 17.35 17.80 20.78 27.20 38.93 49.95 57.80 63.12 60.73 48.53 55.44 66.98 49.38 44.79 43.54 42.60 41.42 40.76 40.26 38.88 37.96 37.62 37.81 38.69 40.13 42.79 49.71 51.27 50.68 51.58 56.37 48.22 43.85 45.84 49.27 52.16 53.81 56.32 61.50 61.22 59.81 58.88 57.87 56.34 53.06 49.24 44.87 39.84 33.97 27.95 22.06 17.31 14.18 12.37 11.46 11.18 11.45 12.97 21.18 NaN 79.65 71.30 71.24 71.48 72.30 66.20 43.85 31.86 25.73 21.82 19.81 19.41 19.94 21.93 26.77 34.41 46.30 55.60 61.57 65.72 66.90 65.88 57.26 64.53 52.79 49.49 49.56 49.79 49.99 50.37 50.33 49.85 48.47 46.69 44.69 44.05 44.04 45.56 51.01 55.85 56.05 51.83 57.82 50.56 51.62 55.06 58.23 60.50 61.38 61.89 65.07 64.05 62.28 60.39 57.71 54.06 49.61 45.28 40.12 33.94 28.34 23.51 19.72 16.97 15.38 14.94 15.31 16.24 17.94 20.59 35.79 79.26 72.16 72.10 72.99 72.58 73.73 66.85 45.64 31.90 26.43 23.61 22.74 23.42 25.13 28.15 33.62 41.03 53.57 62.99 65.10 67.01 72.06 72.72 56.98 59.30 54.44 54.87 55.66 56.76 57.66 58.71 58.82 58.23 57.42 54.64 51.36 49.36 48.30 48.71 51.00 54.27 57.25 54.04 58.01 58.66 61.67 64.94 67.23 67.65 67.14 66.30 65.65 63.30 60.46 57.12 53.06 48.18 43.50 39.39 34.81 29.59 26.25 23.52 21.95 21.04 20.76 21.61 23.19 25.39 28.77 34.35 60.73 72.67 72.61 73.11 74.27 74.30 74.17 69.43 54.68 35.90 31.08 29.12 28.72 29.77 32.01 35.62 41.19 48.39 59.15 69.00 67.62 67.18 72.03 72.80 54.90 54.61 56.93 59.60 61.06 62.07 62.89 63.60 63.67 63.20 62.58 60.30 57.46 56.43 55.56 55.71 56.25 55.70 55.41 58.71 64.67 72.01 70.93 72.44 72.46 71.12 69.68 67.81 60.76 56.61 52.32 48.00 43.41 39.26 35.72 33.17 30.88 28.93 27.70 27.13 27.36 27.94 28.94 30.85 33.59 37.20 42.86 54.32 74.75 74.21 74.35 73.86 73.88 74.43 75.27 74.59 63.73 42.27 38.13 36.53 36.69 38.03 40.68 44.69 50.46 57.27 67.02 73.65 70.81 69.40 70.78 70.40 52.33 52.76 57.96 61.76 64.04 65.37 66.11 66.79 66.69 66.43 66.60 65.48 64.50 67.75 64.83 61.42 61.48 60.74 63.47 69.50 79.41 80.09 75.88 74.85 72.43 70.17 67.48 64.16 52.78 48.52 44.37 41.08 37.71 35.23 33.60 32.68 32.09 31.94 32.03 32.71 34.20 35.88 37.93 40.87 44.36 48.77 55.65 68.36 78.67 76.36 75.81 75.10 72.61 72.31 74.83 75.31 57.53 48.59 46.06 44.76 45.61 47.44 50.07 54.23 59.64 66.12 73.58 75.32 73.50 74.19 72.08 71.84 50.44 49.25 54.67 59.56 62.88 64.89 65.97 66.75 67.25 67.68 68.79 69.18 71.39 68.02 67.10 68.62 69.38 68.30 72.14 82.28 81.19 76.18 75.66 72.32 68.99 65.42 61.32 56.99 49.06 45.52 42.77 40.37 38.25 36.88 36.29 36.09 36.26 36.79 37.40 38.69 40.84 43.32 46.43 50.24 54.01 58.28 64.67 74.63 82.40 78.42 76.67 76.72 75.91 72.27 69.88 61.78 55.54 54.99 53.81 53.28 54.01 55.81 57.92 61.41 66.26 72.14 77.64 75.40 74.42 78.02 73.86 72.72 52.07 45.37 48.91 54.21 58.18 60.35 62.13 63.74 65.06 66.58 68.08 69.86 74.03 70.00 73.25 74.75 74.89 72.15 74.39 74.28 74.56 73.74 72.54 69.12 65.61 61.51 56.93 52.84 54.49 51.82 49.82 48.13 46.57 45.61 45.34 45.42 45.73 46.23 47.19 48.66 51.00 53.78 57.35 61.57 65.47 68.59 72.59 78.82 86.80 79.05 78.31 78.26 79.26 71.29 63.55 61.20 61.93 62.97 63.22 63.02 63.15 63.45 63.87 65.80 69.76 74.51 76.01 72.49 73.33 76.31 73.62 69.89 60.04 44.90 46.03 51.02 54.87 56.62 58.74 61.39 63.67 65.78 67.51 70.68 73.03 71.45 75.75 76.01 73.35 72.54 71.60 72.07 72.96 72.32 71.73 69.63 67.33 64.12 60.55 57.37 66.13 65.16 64.26 63.58 62.95 62.48 62.30 62.37 62.16 62.32 62.52 63.16 64.34 66.17 68.62 71.85 74.79 77.21 77.90 77.81 85.53 78.47 81.40 80.79 75.72 69.32 64.02 65.60 67.79 69.68 70.92 70.30 70.02 69.64 68.26 66.82 68.96 74.37 73.81 69.37 70.84 72.76 72.86 71.22 66.60 49.70 44.23 48.84 52.83 54.71 57.40 60.65 62.78 65.53 67.93 72.65 72.85 70.48 73.28 75.70 72.34 71.82 71.30 71.22 72.16 72.16 71.97 71.23 70.86 69.78 68.40 67.35 68.36 69.24 70.00 70.58 71.50 72.32 73.12 73.90 73.88 73.71 73.77 73.11 72.46 72.20 72.22 72.74 73.14 73.99 74.48 73.78 80.23 78.50 74.50 73.27 65.89 62.18 61.52 62.86 64.50 66.50 67.86 67.77 68.30 70.70 69.20 67.47 66.56 66.72 65.11 63.27 64.84 64.91 70.23 72.73 68.77 57.50 42.98 44.96 48.77 52.15 56.51 59.70 61.52 64.29 66.84 67.40 68.15 67.67 69.30 71.55 73.63 71.54 69.96 69.02 68.88 68.93 68.61 67.78 67.55 67.35 67.33 67.38 58.15 59.12 59.89 60.81 62.16 63.47 64.92 66.45 67.83 68.90 69.93 70.02 69.42 68.06 66.90 66.48 66.39 66.02 65.70 69.11 66.65 73.11 66.69 61.36 55.94 53.20 52.38 52.89 54.22 56.15 57.94 58.46 60.23 65.35 61.63 59.07 58.88 57.30 52.17 53.06 53.17 54.41 61.63 63.29 56.79 54.36 41.25 42.04 44.63 48.97 56.14 61.34 58.16 61.28 64.67 66.29 67.26 66.77 66.16 67.95 70.22 68.61 66.03 65.01 63.31 62.43 61.27 59.70 58.65 57.91 56.98 57.23 46.61 46.90 47.38 47.77 48.37 49.32 50.11 51.36 52.77 54.31 55.96 57.34 58.68 59.26 59.69 60.72 63.04 66.48 64.69 59.37 54.83 57.04 53.84 51.95 48.51 44.66 43.04 42.70 43.67 45.30 47.29 47.98 49.09 52.71 49.81 47.04 45.33 44.44 40.68 42.04 43.47 42.65 49.54 56.28 45.21 37.42 34.50 37.70 41.59 46.09 55.53 64.45 55.46 57.22 61.34 65.67 68.03 68.41 62.92 65.11 67.64 64.69 62.52 60.43 59.62 57.68 55.19 53.11 51.01 49.27 47.58 46.83 40.73 40.01 39.40 38.88 37.93 37.86 38.24 38.47 39.12 40.60 42.49 44.84 47.87 50.49 53.26 57.02 62.21 70.55 67.37 55.03 50.20 48.53 48.59 48.03 43.82 39.91 37.78 36.51 36.60 37.70 39.22 39.90 39.83 41.54 40.74 38.25 35.91 33.76 30.68 30.42 30.11 30.54 37.17 46.66 42.41 36.59 31.20 31.31 36.41 41.85 53.91 62.42 54.51 53.31 56.43 64.69 68.39 69.51 60.80 62.88 66.38 61.48 60.10 58.18 56.55 54.42 51.73 49.34 47.15 45.47 43.46 41.81 40.15 39.26 38.36 37.28 35.98 32.44 31.01 30.49 30.22 30.99 33.05 35.84 39.36 42.98 47.25 56.72 66.33 59.79 55.04 51.37 52.62 53.81 51.95 47.60 41.97 38.64 36.16 34.01 32.78 32.69 33.22 33.37 32.46 33.79 32.91 31.19 29.03 26.00 24.56 24.60 23.53 23.86 27.85 34.75 36.27 30.69 30.74 27.54 30.88 36.61 50.79 61.52 58.86 52.91 53.93 65.34 71.79 68.07 61.91 60.93 65.53 59.72 58.38 56.66 54.14 51.73 49.70 47.46 45.63 44.33 43.00 41.36 39.60 38.60 37.73 36.98 37.90 32.33 28.33 26.50 25.60 25.63 27.12 29.69 33.02 36.60 42.09 55.39 58.14 50.22 50.35 49.19 52.02 50.85 48.95 45.41 41.40 38.71 36.43 33.66 31.41 30.08 29.04 28.51 27.74 28.00 27.23 26.01 24.12 22.31 21.87 23.66 22.88 21.79 23.34 28.90 32.03 29.07 29.05 30.08 27.90 33.41 46.17 58.14 59.30 55.38 56.16 70.05 78.46 71.18 66.85 63.62 63.51 59.98 57.82 55.87 53.97 51.55 48.77 46.38 44.35 42.78 41.84 40.77 39.77 38.57 37.45 36.72 36.25 32.67 28.74 25.61 23.90 23.27 23.98 25.76 28.54 32.88 40.68 49.17 48.71 45.26 46.03 49.07 47.33 46.46 46.19 44.59 42.00 39.76 37.29 34.53 31.78 29.33 27.33 25.59 24.45 24.94 24.28 23.23 22.26 22.61 23.83 24.85 24.40 22.22 20.83 25.57 28.97 28.76 27.50 30.30 26.91 32.50 45.56 56.19 57.25 57.44 63.12 74.45 80.47 77.45 74.44 68.17 67.53 61.69 57.82 55.46 53.83 52.14 50.19 47.12 44.50 42.74 41.70 40.77 41.06 40.01 39.00 38.04 36.61 33.97 30.44 26.95 24.49 23.00 22.59 23.43 25.75 31.45 43.08 47.30 45.41 44.67 45.24 48.63 47.10 45.79 46.07 45.28 43.63 41.58 39.06 36.55 33.47 30.51 27.79 25.04 23.46 23.70 23.57 23.49 22.99 25.50 28.32 29.36 27.31 23.37 20.51 24.09 28.45 28.62 25.03 27.04 28.47 33.90 46.13 53.64 53.64 64.79 74.13 79.02 74.18 83.08 77.19 73.83 66.92 62.43 57.83 55.20 54.19 52.98 51.31 48.86 45.98 44.10 42.91 41.81 42.66 41.98 41.05 39.88 38.63 36.28 32.89 29.79 26.68 24.30 22.56 22.37 24.74 32.02 44.14 47.14 46.54 46.87 46.97 49.66 47.59 46.52 46.44 46.11 45.04 43.31 40.98 39.01 36.68 33.56 30.64 27.10 24.67 23.89 25.85 27.10 27.56 29.68 33.53 32.72 30.97 26.37 24.56 30.13 31.02 28.15 26.34 28.63 25.20 34.86 48.40 52.58 NaN NaN NaN NaN NaN 83.51 72.90 69.79 64.04 60.12 57.54 55.33 55.18 54.80 53.44 51.08 48.54 46.53 45.09 43.92 45.69 44.53 43.66 42.38 41.47 39.73 36.67 33.77 30.52 27.28 23.97 22.38 25.71 35.04 41.92 46.93 49.04 50.69 51.58 51.85 50.67 49.17 48.62 48.01 47.16 45.62 43.47 41.72 40.11 37.55 34.67 31.26 27.93 25.86 33.93 34.00 35.39 35.42 37.72 34.51 33.84 28.66 26.93 34.42 34.94 29.10 28.96 27.17 25.52 35.73 54.25 NaN NaN NaN NaN NaN NaN 80.65 67.24 61.62 57.76 56.05 57.55 57.36 58.11 57.80 56.23 53.84 51.49 49.58 48.02 46.70 49.00 48.16 47.06 45.74 44.85 43.62 41.05 38.14 34.67 31.08 26.69 24.16 29.19 37.11 40.96 46.14 50.59 52.44 54.38 57.09 54.97 53.33 51.71 50.57 49.72 48.58 46.99 44.94 43.32 41.50 39.11 36.08 32.72 29.57 31.90 41.00 43.55 45.27 40.45 37.87 36.89 33.04 34.01 38.87 37.75 38.30 34.89 32.87 37.12 NaN 60.39 NaN NaN NaN NaN NaN NaN 73.42 60.98 55.84 53.66 54.96 60.12 62.69 63.07 61.60 58.85 56.17 54.23 52.62 51.55 50.25 52.57 51.40 50.67 49.74 49.03 47.87 45.54 42.75 39.07 35.14 29.87 27.57 34.66 37.27 41.64 44.66 52.05 54.57 56.43 61.41 58.98 55.35 54.64 53.47 52.67 51.85 50.46 48.37 46.24 44.31 42.33 40.29 36.98 34.07 35.65 43.16 43.53 46.11 43.50 43.40 46.56 43.76 50.28 46.42 46.09 51.67 45.70 42.25 41.02 47.47 NaN NaN NaN NaN NaN NaN NaN 57.72 60.96 54.96 53.43 57.89 59.57 68.66 66.67 63.46 60.82 58.06 56.24 54.96 54.44 53.88 55.40 54.50 53.40 53.52 52.69 51.52 49.75 47.08 43.85 39.72 34.13 36.30 38.25 39.94 NaN 47.74 54.32 55.44 57.59 61.17 61.96 56.93 55.12 55.18 54.98 54.42 52.75 51.15 49.19 47.11 45.00 42.85 40.22 38.03 43.12 52.43 47.30 44.67 46.78 51.10 59.57 52.25 58.01 58.25 63.94 58.91 47.26 43.32 40.97 52.02 NaN 40.22 33.98 29.39 32.71 NaN 38.07 48.79 60.01 58.79 58.57 65.96 62.10 62.91 66.55 63.88 62.30 60.08 58.20 56.81 56.10 55.83 56.83 56.62 55.73 55.61 55.27 54.37 53.04 50.85 47.79 44.17 39.37 45.01 45.10 45.97 45.71 52.63 57.17 57.88 59.19 60.50 64.04 62.03 57.51 55.93 55.35 54.90 53.79 53.14 51.69 49.7